
     Program PROJWFC v.7.2 starts on 15Dec2025 at 14:29:32 

     This program is part of the open-source Quantum ESPRESSO suite
     for quantum simulation of materials; please cite
         "P. Giannozzi et al., J. Phys.:Condens. Matter 21 395502 (2009);
         "P. Giannozzi et al., J. Phys.:Condens. Matter 29 465901 (2017);
         "P. Giannozzi et al., J. Chem. Phys. 152 154105 (2020);
          URL http://www.quantum-espresso.org", 
     in publications or presentations arising from this work. More details at
     http://www.quantum-espresso.org/quote

     Parallel version (MPI), running on    16 processors

     MPI processes distributed on     1 nodes
     R & G space division:  proc/nbgrp/npool/nimage =      16
     124958 MiB available memory on the printing compute node when the environment starts
 

     Reading xml data from directory:

     ../tmp/mos2.save/
     file Mo.pbe-spn-rrkjus_psl.1.0.0.UPF: wavefunction(s)  4S renormalized

     IMPORTANT: XC functional enforced from input :
     Exchange-correlation= PBE
                           (   1   4   3   4   0   0   0)
     Any further DFT definition will be discarded
     Please, verify this is what you really want

 
     Parallelization info
     --------------------
     sticks:   dense  smooth     PW     G-vecs:    dense   smooth      PW
     Min          94      50     14                50766    19738    3033
     Max          95      51     16                50794    19779    3053
     Sum        1507     805    235               812439   316181   48661
 
     Using Slab Decomposition
 
 ----2D----2D----2D----2D----2D----2D----2D----2D----2D----2D----2D----2D
  The code is running with the 2D cutoff
  Please refer to:
  Sohier, T., Calandra, M., & Mauri, F. (2017), 
  Density functional perturbation theory for gated two-dimensional heterostructu
 res:
  Theoretical developments and application to flexural phonons in graphene.
  Physical Review B, 96(7), 75448. https://doi.org/10.1103/PhysRevB.96.075448
 ----2D----2D----2D----2D----2D----2D----2D----2D----2D----2D----2D----2D

     negative rho (up, down):  3.778E-04 0.000E+00

     Gaussian broadening (read from input): ngauss,degauss=   0    0.005000


     Calling projwave .... 
     Subspace diagonalization in iterative solution of the eigenvalue problem:
     one sub-group per band group will be used
     scalapack distributed-memory algorithm (size of sub-group:  4*  4 procs)

     linear algebra parallelized on  16 procs
 
  Problem Sizes 
  natomwfc =           18
  nx       =            5
  nbnd     =           40
  nkstot   =           21
  npwx     =         2456
  nkb      =           34
 

     Atomic states used for projection
     (read from pseudopotential files):

     state #   1: atom   1 (Mo ), wfc  1 (l=0 m= 1)
     state #   2: atom   1 (Mo ), wfc  2 (l=0 m= 1)
     state #   3: atom   1 (Mo ), wfc  3 (l=1 m= 1)
     state #   4: atom   1 (Mo ), wfc  3 (l=1 m= 2)
     state #   5: atom   1 (Mo ), wfc  3 (l=1 m= 3)
     state #   6: atom   1 (Mo ), wfc  4 (l=2 m= 1)
     state #   7: atom   1 (Mo ), wfc  4 (l=2 m= 2)
     state #   8: atom   1 (Mo ), wfc  4 (l=2 m= 3)
     state #   9: atom   1 (Mo ), wfc  4 (l=2 m= 4)
     state #  10: atom   1 (Mo ), wfc  4 (l=2 m= 5)
     state #  11: atom   2 (S  ), wfc  1 (l=0 m= 1)
     state #  12: atom   2 (S  ), wfc  2 (l=1 m= 1)
     state #  13: atom   2 (S  ), wfc  2 (l=1 m= 2)
     state #  14: atom   2 (S  ), wfc  2 (l=1 m= 3)
     state #  15: atom   3 (S  ), wfc  1 (l=0 m= 1)
     state #  16: atom   3 (S  ), wfc  2 (l=1 m= 1)
     state #  17: atom   3 (S  ), wfc  2 (l=1 m= 2)
     state #  18: atom   3 (S  ), wfc  2 (l=1 m= 3)

 k =   0.0000000000  0.0000000000  0.0000000000
==== e(   1) =   -67.17768 eV ==== 
     psi = 0.980*[#   1]+0.018*[#   2]+0.002*[#   6]
    |psi|^2 = 1.000
==== e(   2) =   -41.41442 eV ==== 
     psi = 1.000*[#   3]
    |psi|^2 = 1.000
==== e(   3) =   -40.91888 eV ==== 
     psi = 0.500*[#   4]+0.500*[#   5]
    |psi|^2 = 1.000
==== e(   4) =   -40.91888 eV ==== 
     psi = 0.500*[#   4]+0.500*[#   5]
    |psi|^2 = 1.000
==== e(   5) =   -18.22476 eV ==== 
     psi = 0.500*[#  11]+0.500*[#  15]
    |psi|^2 = 0.999
==== e(   6) =   -18.22476 eV ==== 
     psi = 0.500*[#  11]+0.500*[#  15]
    |psi|^2 = 0.999
==== e(   7) =    -9.73959 eV ==== 
     psi = 0.781*[#   2]+0.194*[#   6]+0.020*[#   1]
    |psi|^2 = 0.995
==== e(   8) =    -7.60210 eV ==== 
     psi = 0.499*[#  12]+0.499*[#  16]
    |psi|^2 = 0.999
==== e(   9) =    -7.60210 eV ==== 
     psi = 0.499*[#  12]+0.499*[#  16]
    |psi|^2 = 0.999
==== e(  10) =    -6.80676 eV ==== 
     psi = 0.800*[#   6]+0.198*[#   2]
    |psi|^2 = 0.999
==== e(  11) =    -6.16247 eV ==== 
     psi = 0.500*[#   9]+0.500*[#  10]
    |psi|^2 = 1.000
==== e(  12) =    -6.16247 eV ==== 
     psi = 0.500*[#   9]+0.500*[#  10]
    |psi|^2 = 1.000
==== e(  13) =    -4.86682 eV ==== 
 
    |psi|^2 = 0.000
==== e(  14) =    -4.86274 eV ==== 
     psi = 0.500*[#   7]+0.500*[#   8]
    |psi|^2 = 1.000
==== e(  15) =    -4.86274 eV ==== 
     psi = 0.500*[#   7]+0.500*[#   8]
    |psi|^2 = 1.000
==== e(  16) =    -4.26241 eV ==== 
     psi = 0.250*[#  13]+0.250*[#  14]+0.250*[#  17]+0.250*[#  18]
    |psi|^2 = 1.000
==== e(  17) =    -4.26241 eV ==== 
     psi = 0.250*[#  13]+0.250*[#  14]+0.250*[#  17]+0.250*[#  18]
    |psi|^2 = 1.000
==== e(  18) =    -4.26241 eV ==== 
     psi = 0.250*[#  13]+0.250*[#  14]+0.250*[#  17]+0.250*[#  18]
    |psi|^2 = 1.000
==== e(  19) =    -4.26241 eV ==== 
     psi = 0.250*[#  13]+0.250*[#  14]+0.250*[#  17]+0.250*[#  18]
    |psi|^2 = 1.000
==== e(  20) =    -0.94167 eV ==== 
     psi = 0.002*[#   6]+0.002*[#   2]
    |psi|^2 = 0.004
==== e(  21) =    -0.37494 eV ==== 
 
    |psi|^2 = 0.000
==== e(  22) =    -0.37374 eV ==== 
 
    |psi|^2 = 0.000
==== e(  23) =    -0.10759 eV ==== 
 
    |psi|^2 = 0.000
==== e(  24) =    -0.10141 eV ==== 
 
    |psi|^2 = 0.000
==== e(  25) =    -0.07352 eV ==== 
 
    |psi|^2 = 0.000
==== e(  26) =     0.64419 eV ==== 
 
    |psi|^2 = 0.000
==== e(  27) =     0.64656 eV ==== 
 
    |psi|^2 = 0.000
==== e(  28) =     1.20416 eV ==== 
 
    |psi|^2 = 0.000
==== e(  29) =     1.20835 eV ==== 
 
    |psi|^2 = 0.000
==== e(  30) =     2.32148 eV ==== 
 
    |psi|^2 = 0.000
==== e(  31) =     2.32923 eV ==== 
 
    |psi|^2 = 0.000
==== e(  32) =     3.09817 eV ==== 
 
    |psi|^2 = 0.002
==== e(  33) =     3.78405 eV ==== 
 
    |psi|^2 = 0.000
==== e(  34) =     3.80633 eV ==== 
 
    |psi|^2 = 0.000
==== e(  35) =     4.27595 eV ==== 
 
    |psi|^2 = 0.000
==== e(  36) =     4.29465 eV ==== 
 
    |psi|^2 = 0.000
==== e(  37) =     4.44547 eV ==== 
 
    |psi|^2 = 0.000
==== e(  38) =     4.86685 eV ==== 
 
    |psi|^2 = 0.000
==== e(  39) =     4.94862 eV ==== 
 
    |psi|^2 = 0.000
==== e(  40) =     6.08168 eV ==== 
 
    |psi|^2 = 0.000

 k =   0.0000000000  0.0888231183  0.0000000000
==== e(   1) =   -67.17588 eV ==== 
     psi = 0.982*[#   1]+0.016*[#   2]+0.002*[#   6]
    |psi|^2 = 1.000
==== e(   2) =   -41.41228 eV ==== 
     psi = 1.000*[#   3]
    |psi|^2 = 1.000
==== e(   3) =   -40.93598 eV ==== 
     psi = 0.499*[#   4]+0.499*[#   5]+0.001*[#   2]
    |psi|^2 = 1.000
==== e(   4) =   -40.92301 eV ==== 
     psi = 0.500*[#   4]+0.500*[#   5]
    |psi|^2 = 1.000
==== e(   5) =   -18.15708 eV ==== 
     psi = 0.495*[#  11]+0.495*[#  15]+0.002*[#  13]+0.002*[#  14]+0.002*[#  17]
          +0.002*[#  18]
    |psi|^2 = 0.999
==== e(   6) =   -18.15708 eV ==== 
     psi = 0.495*[#  11]+0.495*[#  15]+0.002*[#  13]+0.002*[#  14]+0.002*[#  17]
          +0.002*[#  18]
    |psi|^2 = 0.999
==== e(   7) =    -9.57851 eV ==== 
     psi = 0.784*[#   2]+0.191*[#   6]+0.017*[#   1]
    |psi|^2 = 0.995
==== e(   8) =    -7.53574 eV ==== 
     psi = 0.499*[#  12]+0.499*[#  16]
    |psi|^2 = 0.999
==== e(   9) =    -7.53574 eV ==== 
     psi = 0.499*[#  12]+0.499*[#  16]
    |psi|^2 = 0.999
==== e(  10) =    -6.75251 eV ==== 
     psi = 0.802*[#   6]+0.196*[#   2]
    |psi|^2 = 0.998
==== e(  11) =    -6.25461 eV ==== 
     psi = 0.499*[#   9]+0.499*[#  10]
    |psi|^2 = 0.999
==== e(  12) =    -6.04982 eV ==== 
     psi = 0.500*[#   9]+0.500*[#  10]
    |psi|^2 = 0.999
==== e(  13) =    -5.46979 eV ==== 
     psi = 0.350*[#   7]+0.350*[#   8]
    |psi|^2 = 0.701
==== e(  14) =    -4.89089 eV ==== 
     psi = 0.500*[#   7]+0.500*[#   8]
    |psi|^2 = 1.000
==== e(  15) =    -4.63692 eV ==== 
     psi = 0.247*[#  13]+0.247*[#  14]+0.247*[#  17]+0.247*[#  18]+0.005*[#  11]
          +0.005*[#  15]
    |psi|^2 = 0.998
==== e(  16) =    -4.63692 eV ==== 
     psi = 0.247*[#  13]+0.247*[#  14]+0.247*[#  17]+0.247*[#  18]+0.005*[#  11]
          +0.005*[#  15]
    |psi|^2 = 0.998
==== e(  17) =    -4.34211 eV ==== 
     psi = 0.250*[#  13]+0.250*[#  14]+0.250*[#  17]+0.250*[#  18]
    |psi|^2 = 0.999
==== e(  18) =    -4.34210 eV ==== 
     psi = 0.250*[#  13]+0.250*[#  14]+0.250*[#  17]+0.250*[#  18]
    |psi|^2 = 0.999
==== e(  19) =    -4.22227 eV ==== 
     psi = 0.148*[#   7]+0.148*[#   8]
    |psi|^2 = 0.297
==== e(  20) =    -0.83989 eV ==== 
     psi = 0.002*[#   6]+0.002*[#   2]
    |psi|^2 = 0.004
==== e(  21) =    -0.25743 eV ==== 
 
    |psi|^2 = 0.000
==== e(  22) =    -0.25632 eV ==== 
 
    |psi|^2 = 0.000
==== e(  23) =     0.01658 eV ==== 
 
    |psi|^2 = 0.000
==== e(  24) =     0.01964 eV ==== 
 
    |psi|^2 = 0.000
==== e(  25) =     0.07369 eV ==== 
 
    |psi|^2 = 0.002
==== e(  26) =     0.76127 eV ==== 
 
    |psi|^2 = 0.000
==== e(  27) =     0.76373 eV ==== 
 
    |psi|^2 = 0.000
==== e(  28) =     1.30814 eV ==== 
 
    |psi|^2 = 0.000
==== e(  29) =     1.31231 eV ==== 
 
    |psi|^2 = 0.000
==== e(  30) =     2.43153 eV ==== 
 
    |psi|^2 = 0.000
==== e(  31) =     2.43939 eV ==== 
 
    |psi|^2 = 0.000
==== e(  32) =     3.19033 eV ==== 
 
    |psi|^2 = 0.002
==== e(  33) =     3.91932 eV ==== 
 
    |psi|^2 = 0.000
==== e(  34) =     3.94322 eV ==== 
 
    |psi|^2 = 0.000
==== e(  35) =     4.54394 eV ==== 
 
    |psi|^2 = 0.001
==== e(  36) =     4.60135 eV ==== 
 
    |psi|^2 = 0.001
==== e(  37) =     4.63392 eV ==== 
 
    |psi|^2 = 0.001
==== e(  38) =     4.95286 eV ==== 
 
    |psi|^2 = 0.000
==== e(  39) =     5.03357 eV ==== 
 
    |psi|^2 = 0.000
==== e(  40) =     6.14488 eV ==== 
 
    |psi|^2 = 0.000

 k =   0.0000000000  0.1776462367  0.0000000000
==== e(   1) =   -67.17090 eV ==== 
     psi = 0.988*[#   1]+0.011*[#   2]
    |psi|^2 = 1.000
==== e(   2) =   -41.40633 eV ==== 
     psi = 1.000*[#   3]
    |psi|^2 = 1.000
==== e(   3) =   -40.98315 eV ==== 
     psi = 0.497*[#   4]+0.497*[#   5]+0.004*[#   2]
    |psi|^2 = 1.000
==== e(   4) =   -40.93444 eV ==== 
     psi = 0.500*[#   4]+0.500*[#   5]
    |psi|^2 = 1.000
==== e(   5) =   -17.96080 eV ==== 
     psi = 0.485*[#  11]+0.485*[#  15]+0.007*[#  13]+0.007*[#  14]+0.007*[#  17]
          +0.007*[#  18]
    |psi|^2 = 0.999
==== e(   6) =   -17.96080 eV ==== 
     psi = 0.485*[#  11]+0.485*[#  15]+0.007*[#  13]+0.007*[#  14]+0.007*[#  17]
          +0.007*[#  18]
    |psi|^2 = 0.999
==== e(   7) =    -9.12497 eV ==== 
     psi = 0.780*[#   2]+0.183*[#   6]+0.012*[#   1]+0.008*[#   9]+0.008*[#  10]
          +0.002*[#   4]+0.002*[#   5]
    |psi|^2 = 0.994
==== e(   8) =    -7.34395 eV ==== 
     psi = 0.499*[#  12]+0.499*[#  16]
    |psi|^2 = 0.999
==== e(   9) =    -7.34395 eV ==== 
     psi = 0.499*[#  12]+0.499*[#  16]
    |psi|^2 = 0.999
==== e(  10) =    -6.60805 eV ==== 
     psi = 0.728*[#   6]+0.202*[#   2]+0.034*[#   9]+0.034*[#  10]
    |psi|^2 = 0.998
==== e(  11) =    -6.45781 eV ==== 
     psi = 0.457*[#   9]+0.457*[#  10]+0.082*[#   6]
    |psi|^2 = 0.996
==== e(  12) =    -6.02632 eV ==== 
     psi = 0.425*[#   7]+0.425*[#   8]
    |psi|^2 = 0.850
==== e(  13) =    -5.72351 eV ==== 
     psi = 0.499*[#   9]+0.499*[#  10]
    |psi|^2 = 0.998
==== e(  14) =    -5.55811 eV ==== 
     psi = 0.242*[#  13]+0.242*[#  14]+0.242*[#  17]+0.242*[#  18]+0.014*[#  11]
          +0.014*[#  15]
    |psi|^2 = 0.996
==== e(  15) =    -5.55811 eV ==== 
     psi = 0.242*[#  13]+0.242*[#  14]+0.242*[#  17]+0.242*[#  18]+0.014*[#  11]
          +0.014*[#  15]
    |psi|^2 = 0.996
==== e(  16) =    -4.96778 eV ==== 
     psi = 0.500*[#   7]+0.500*[#   8]
    |psi|^2 = 1.000
==== e(  17) =    -4.55130 eV ==== 
     psi = 0.250*[#  13]+0.250*[#  14]+0.250*[#  17]+0.250*[#  18]
    |psi|^2 = 0.998
==== e(  18) =    -4.55130 eV ==== 
     psi = 0.250*[#  13]+0.250*[#  14]+0.250*[#  17]+0.250*[#  18]
    |psi|^2 = 0.998
==== e(  19) =    -3.53193 eV ==== 
     psi = 0.072*[#   7]+0.072*[#   8]
    |psi|^2 = 0.145
==== e(  20) =    -0.53434 eV ==== 
     psi = 0.002*[#   6]+0.002*[#   2]
    |psi|^2 = 0.004
==== e(  21) =     0.09369 eV ==== 
 
    |psi|^2 = 0.000
==== e(  22) =     0.09460 eV ==== 
 
    |psi|^2 = 0.000
==== e(  23) =     0.37138 eV ==== 
 
    |psi|^2 = 0.001
==== e(  24) =     0.37250 eV ==== 
 
    |psi|^2 = 0.001
==== e(  25) =     0.50425 eV ==== 
     psi = 0.002*[#   7]+0.002*[#   8]
    |psi|^2 = 0.004
==== e(  26) =     1.10556 eV ==== 
 
    |psi|^2 = 0.000
==== e(  27) =     1.10829 eV ==== 
 
    |psi|^2 = 0.000
==== e(  28) =     1.61253 eV ==== 
 
    |psi|^2 = 0.000
==== e(  29) =     1.61651 eV ==== 
 
    |psi|^2 = 0.000
==== e(  30) =     2.75398 eV ==== 
 
    |psi|^2 = 0.000
==== e(  31) =     2.76203 eV ==== 
 
    |psi|^2 = 0.000
==== e(  32) =     3.46539 eV ==== 
 
    |psi|^2 = 0.002
==== e(  33) =     4.26737 eV ==== 
 
    |psi|^2 = 0.000
==== e(  34) =     4.29014 eV ==== 
 
    |psi|^2 = 0.000
==== e(  35) =     4.79842 eV ==== 
 
    |psi|^2 = 0.000
==== e(  36) =     4.80330 eV ==== 
 
    |psi|^2 = 0.000
==== e(  37) =     4.99809 eV ==== 
 
    |psi|^2 = 0.001
==== e(  38) =     5.12481 eV ==== 
 
    |psi|^2 = 0.000
==== e(  39) =     5.21015 eV ==== 
 
    |psi|^2 = 0.000
==== e(  40) =     6.22719 eV ==== 
 
    |psi|^2 = 0.002

 k =   0.0000000000  0.2664693550  0.0000000000
==== e(   1) =   -67.16387 eV ==== 
     psi = 0.995*[#   1]+0.004*[#   2]
    |psi|^2 = 1.000
==== e(   2) =   -41.39794 eV ==== 
     psi = 0.999*[#   3]
    |psi|^2 = 1.000
==== e(   3) =   -41.04914 eV ==== 
     psi = 0.496*[#   4]+0.496*[#   5]+0.007*[#   2]+0.001*[#   6]
    |psi|^2 = 1.000
==== e(   4) =   -40.95051 eV ==== 
     psi = 0.500*[#   4]+0.500*[#   5]
    |psi|^2 = 1.000
==== e(   5) =   -17.65842 eV ==== 
     psi = 0.478*[#  11]+0.478*[#  15]+0.011*[#  13]+0.011*[#  14]+0.011*[#  17]
          +0.011*[#  18]
    |psi|^2 = 0.999
==== e(   6) =   -17.65842 eV ==== 
     psi = 0.478*[#  11]+0.478*[#  15]+0.011*[#  13]+0.011*[#  14]+0.011*[#  17]
          +0.011*[#  18]
    |psi|^2 = 0.999
==== e(   7) =    -8.52065 eV ==== 
     psi = 0.686*[#   2]+0.164*[#   6]+0.066*[#   9]+0.066*[#  10]+0.005*[#   1]
          +0.003*[#   4]+0.003*[#   5]
    |psi|^2 = 0.993
==== e(   8) =    -7.05057 eV ==== 
     psi = 0.499*[#  12]+0.499*[#  16]
    |psi|^2 = 0.998
==== e(   9) =    -7.05057 eV ==== 
     psi = 0.499*[#  12]+0.499*[#  16]
    |psi|^2 = 0.998
==== e(  10) =    -6.68857 eV ==== 
     psi = 0.238*[#  13]+0.238*[#  14]+0.238*[#  17]+0.238*[#  18]+0.022*[#  11]
          +0.022*[#  15]
    |psi|^2 = 0.995
==== e(  11) =    -6.68857 eV ==== 
     psi = 0.238*[#  13]+0.238*[#  14]+0.238*[#  17]+0.238*[#  18]+0.022*[#  11]
          +0.022*[#  15]
    |psi|^2 = 0.995
==== e(  12) =    -6.61171 eV ==== 
     psi = 0.395*[#   9]+0.395*[#  10]+0.185*[#   2]+0.011*[#   6]+0.001*[#   4]
          +0.001*[#   5]
    |psi|^2 = 0.989
==== e(  13) =    -6.51069 eV ==== 
     psi = 0.467*[#   7]+0.467*[#   8]
    |psi|^2 = 0.935
==== e(  14) =    -6.34868 eV ==== 
     psi = 0.819*[#   6]+0.109*[#   2]+0.035*[#   9]+0.035*[#  10]
    |psi|^2 = 0.998
==== e(  15) =    -5.22151 eV ==== 
     psi = 0.498*[#   9]+0.498*[#  10]
    |psi|^2 = 0.997
==== e(  16) =    -5.07356 eV ==== 
     psi = 0.500*[#   7]+0.500*[#   8]
    |psi|^2 = 1.000
==== e(  17) =    -4.82170 eV ==== 
     psi = 0.250*[#  13]+0.250*[#  14]+0.250*[#  17]+0.250*[#  18]
    |psi|^2 = 0.998
==== e(  18) =    -4.82169 eV ==== 
     psi = 0.250*[#  13]+0.250*[#  14]+0.250*[#  17]+0.250*[#  18]
    |psi|^2 = 0.998
==== e(  19) =    -2.76832 eV ==== 
     psi = 0.030*[#   7]+0.030*[#   8]
    |psi|^2 = 0.059
==== e(  20) =    -0.02436 eV ==== 
     psi = 0.002*[#   6]+0.002*[#   2]
    |psi|^2 = 0.004
==== e(  21) =     0.67655 eV ==== 
 
    |psi|^2 = 0.000
==== e(  22) =     0.67727 eV ==== 
 
    |psi|^2 = 0.000
==== e(  23) =     0.94492 eV ==== 
 
    |psi|^2 = 0.001
==== e(  24) =     0.94552 eV ==== 
 
    |psi|^2 = 0.001
==== e(  25) =     1.17330 eV ==== 
     psi = 0.002*[#   7]+0.002*[#   8]
    |psi|^2 = 0.003
==== e(  26) =     1.65774 eV ==== 
 
    |psi|^2 = 0.001
==== e(  27) =     1.66086 eV ==== 
 
    |psi|^2 = 0.001
==== e(  28) =     2.08542 eV ==== 
 
    |psi|^2 = 0.000
==== e(  29) =     2.08872 eV ==== 
 
    |psi|^2 = 0.000
==== e(  30) =     3.26045 eV ==== 
 
    |psi|^2 = 0.000
==== e(  31) =     3.26814 eV ==== 
 
    |psi|^2 = 0.000
==== e(  32) =     3.91804 eV ==== 
 
    |psi|^2 = 0.001
==== e(  33) =     4.10441 eV ==== 
 
    |psi|^2 = 0.001
==== e(  34) =     4.10507 eV ==== 
 
    |psi|^2 = 0.001
==== e(  35) =     4.79144 eV ==== 
 
    |psi|^2 = 0.000
==== e(  36) =     4.81844 eV ==== 
 
    |psi|^2 = 0.000
==== e(  37) =     5.14846 eV ==== 
 
    |psi|^2 = 0.001
==== e(  38) =     5.19940 eV ==== 
 
    |psi|^2 = 0.001
==== e(  39) =     5.64877 eV ==== 
 
    |psi|^2 = 0.001
==== e(  40) =     5.74013 eV ==== 
     psi = 0.005*[#   2]+0.002*[#   9]+0.002*[#  10]
    |psi|^2 = 0.010

 k =   0.0000000000  0.3552924733  0.0000000000
==== e(   1) =   -67.15638 eV ==== 
     psi = 0.998*[#   1]
    |psi|^2 = 1.000
==== e(   2) =   -41.38901 eV ==== 
     psi = 0.999*[#   3]
    |psi|^2 = 1.000
==== e(   3) =   -41.11855 eV ==== 
     psi = 0.495*[#   4]+0.495*[#   5]+0.008*[#   2]+0.001*[#   6]
    |psi|^2 = 1.000
==== e(   4) =   -40.96752 eV ==== 
     psi = 0.500*[#   4]+0.500*[#   5]
    |psi|^2 = 1.000
==== e(   5) =   -17.29487 eV ==== 
     psi = 0.479*[#  11]+0.479*[#  15]+0.010*[#  13]+0.010*[#  14]+0.010*[#  17]
          +0.010*[#  18]
    |psi|^2 = 0.999
==== e(   6) =   -17.29487 eV ==== 
     psi = 0.479*[#  11]+0.479*[#  15]+0.010*[#  13]+0.010*[#  14]+0.010*[#  17]
          +0.010*[#  18]
    |psi|^2 = 0.999
==== e(   7) =    -8.16463 eV ==== 
     psi = 0.367*[#   2]+0.256*[#   9]+0.256*[#  10]+0.112*[#   6]+0.001*[#   1]
          +0.001*[#   4]+0.001*[#   5]
    |psi|^2 = 0.995
==== e(   8) =    -7.78251 eV ==== 
     psi = 0.239*[#  13]+0.239*[#  14]+0.239*[#  17]+0.239*[#  18]+0.021*[#  11]
          +0.021*[#  15]
    |psi|^2 = 0.995
==== e(   9) =    -7.78251 eV ==== 
     psi = 0.239*[#  13]+0.239*[#  14]+0.239*[#  17]+0.239*[#  18]+0.021*[#  11]
          +0.021*[#  15]
    |psi|^2 = 0.995
==== e(  10) =    -6.89778 eV ==== 
     psi = 0.487*[#   7]+0.487*[#   8]
    |psi|^2 = 0.975
==== e(  11) =    -6.70191 eV ==== 
     psi = 0.499*[#  12]+0.499*[#  16]
    |psi|^2 = 0.998
==== e(  12) =    -6.70191 eV ==== 
     psi = 0.499*[#  12]+0.499*[#  16]
    |psi|^2 = 0.998
==== e(  13) =    -6.20947 eV ==== 
     psi = 0.575*[#   2]+0.180*[#   9]+0.180*[#  10]+0.017*[#   6]+0.003*[#   4]
          +0.003*[#   5]
    |psi|^2 = 0.957
==== e(  14) =    -6.08015 eV ==== 
     psi = 0.863*[#   6]+0.056*[#   9]+0.056*[#  10]+0.016*[#   2]
    |psi|^2 = 0.992
==== e(  15) =    -5.18272 eV ==== 
     psi = 0.500*[#   7]+0.500*[#   8]
    |psi|^2 = 1.000
==== e(  16) =    -5.08335 eV ==== 
     psi = 0.250*[#  13]+0.250*[#  14]+0.250*[#  17]+0.250*[#  18]
    |psi|^2 = 0.998
==== e(  17) =    -5.08335 eV ==== 
     psi = 0.250*[#  13]+0.250*[#  14]+0.250*[#  17]+0.250*[#  18]
    |psi|^2 = 0.998
==== e(  18) =    -4.61814 eV ==== 
     psi = 0.498*[#   9]+0.498*[#  10]
    |psi|^2 = 0.996
==== e(  19) =    -1.91232 eV ==== 
     psi = 0.010*[#   7]+0.010*[#   8]
    |psi|^2 = 0.021
==== e(  20) =     0.68884 eV ==== 
     psi = 0.002*[#   2]+0.002*[#   6]
    |psi|^2 = 0.003
==== e(  21) =     1.48546 eV ==== 
 
    |psi|^2 = 0.000
==== e(  22) =     1.48601 eV ==== 
 
    |psi|^2 = 0.000
==== e(  23) =     1.71970 eV ==== 
 
    |psi|^2 = 0.001
==== e(  24) =     1.72031 eV ==== 
 
    |psi|^2 = 0.001
==== e(  25) =     2.01721 eV ==== 
 
    |psi|^2 = 0.002
==== e(  26) =     2.27395 eV ==== 
 
    |psi|^2 = 0.001
==== e(  27) =     2.27678 eV ==== 
 
    |psi|^2 = 0.001
==== e(  28) =     2.67911 eV ==== 
 
    |psi|^2 = 0.000
==== e(  29) =     2.68108 eV ==== 
 
    |psi|^2 = 0.000
==== e(  30) =     3.43426 eV ==== 
 
    |psi|^2 = 0.001
==== e(  31) =     3.43456 eV ==== 
 
    |psi|^2 = 0.001
==== e(  32) =     3.63456 eV ==== 
     psi = 0.028*[#   2]+0.006*[#   9]+0.006*[#  10]+0.003*[#   6]
    |psi|^2 = 0.043
==== e(  33) =     3.87176 eV ==== 
 
    |psi|^2 = 0.000
==== e(  34) =     3.87742 eV ==== 
 
    |psi|^2 = 0.000
==== e(  35) =     4.52823 eV ==== 
 
    |psi|^2 = 0.001
==== e(  36) =     4.85803 eV ==== 
 
    |psi|^2 = 0.001
==== e(  37) =     4.86027 eV ==== 
 
    |psi|^2 = 0.001
==== e(  38) =     5.63093 eV ==== 
 
    |psi|^2 = 0.000
==== e(  39) =     5.71091 eV ==== 
 
    |psi|^2 = 0.000
==== e(  40) =     5.74858 eV ==== 
 
    |psi|^2 = 0.000

 k =   0.0000000000  0.4441155917  0.0000000000
==== e(   1) =   -67.15017 eV ==== 
     psi = 0.995*[#   1]+0.002*[#   2]+0.002*[#   9]+0.002*[#  10]
    |psi|^2 = 1.000
==== e(   2) =   -41.38160 eV ==== 
     psi = 1.000*[#   3]
    |psi|^2 = 1.000
==== e(   3) =   -41.17560 eV ==== 
     psi = 0.497*[#   4]+0.497*[#   5]+0.005*[#   2]
    |psi|^2 = 1.000
==== e(   4) =   -40.98157 eV ==== 
     psi = 0.500*[#   4]+0.500*[#   5]
    |psi|^2 = 1.000
==== e(   5) =   -16.94761 eV ==== 
     psi = 0.488*[#  11]+0.488*[#  15]+0.006*[#  13]+0.006*[#  14]+0.006*[#  17]
          +0.006*[#  18]
    |psi|^2 = 0.999
==== e(   6) =   -16.94761 eV ==== 
     psi = 0.488*[#  11]+0.488*[#  15]+0.006*[#  13]+0.006*[#  14]+0.006*[#  17]
          +0.006*[#  18]
    |psi|^2 = 0.999
==== e(   7) =    -8.65850 eV ==== 
     psi = 0.243*[#  13]+0.243*[#  14]+0.243*[#  17]+0.243*[#  18]+0.011*[#  11]
          +0.011*[#  15]
    |psi|^2 = 0.997
==== e(   8) =    -8.65850 eV ==== 
     psi = 0.243*[#  13]+0.243*[#  14]+0.243*[#  17]+0.243*[#  18]+0.011*[#  11]
          +0.011*[#  15]
    |psi|^2 = 0.997
==== e(   9) =    -8.18401 eV ==== 
     psi = 0.384*[#   9]+0.384*[#  10]+0.158*[#   2]+0.070*[#   6]
    |psi|^2 = 0.998
==== e(  10) =    -7.16719 eV ==== 
     psi = 0.496*[#   7]+0.496*[#   8]
    |psi|^2 = 0.992
==== e(  11) =    -6.37421 eV ==== 
     psi = 0.499*[#  12]+0.499*[#  16]
    |psi|^2 = 0.998
==== e(  12) =    -6.37421 eV ==== 
     psi = 0.499*[#  12]+0.499*[#  16]
    |psi|^2 = 0.998
==== e(  13) =    -5.86409 eV ==== 
     psi = 0.852*[#   6]+0.134*[#   2]+0.006*[#   9]+0.006*[#  10]
    |psi|^2 = 0.999
==== e(  14) =    -5.28405 eV ==== 
     psi = 0.250*[#  13]+0.250*[#  14]+0.250*[#  17]+0.250*[#  18]
    |psi|^2 = 0.999
==== e(  15) =    -5.28405 eV ==== 
     psi = 0.250*[#  13]+0.250*[#  14]+0.250*[#  17]+0.250*[#  18]
    |psi|^2 = 0.999
==== e(  16) =    -5.27089 eV ==== 
     psi = 0.500*[#   7]+0.500*[#   8]
    |psi|^2 = 1.000
==== e(  17) =    -5.15606 eV ==== 
     psi = 0.536*[#   2]+0.089*[#   9]+0.089*[#  10]+0.060*[#   6]+0.003*[#   1]
          +0.002*[#   4]+0.002*[#   5]
    |psi|^2 = 0.782
==== e(  18) =    -4.04030 eV ==== 
     psi = 0.498*[#   9]+0.498*[#  10]
    |psi|^2 = 0.997
==== e(  19) =    -0.98633 eV ==== 
     psi = 0.003*[#   7]+0.003*[#   8]
    |psi|^2 = 0.006
==== e(  20) =     1.40817 eV ==== 
     psi = 0.081*[#   2]+0.010*[#   6]+0.007*[#   9]+0.007*[#  10]
    |psi|^2 = 0.106
==== e(  21) =     1.86768 eV ==== 
     psi = 0.070*[#   2]+0.009*[#   9]+0.009*[#  10]+0.004*[#   6]
    |psi|^2 = 0.094
==== e(  22) =     2.18018 eV ==== 
 
    |psi|^2 = 0.001
==== e(  23) =     2.18027 eV ==== 
 
    |psi|^2 = 0.001
==== e(  24) =     2.55988 eV ==== 
 
    |psi|^2 = 0.001
==== e(  25) =     2.56041 eV ==== 
 
    |psi|^2 = 0.001
==== e(  26) =     2.65758 eV ==== 
 
    |psi|^2 = 0.001
==== e(  27) =     2.65812 eV ==== 
 
    |psi|^2 = 0.001
==== e(  28) =     2.83053 eV ==== 
 
    |psi|^2 = 0.000
==== e(  29) =     3.10922 eV ==== 
 
    |psi|^2 = 0.000
==== e(  30) =     3.10982 eV ==== 
 
    |psi|^2 = 0.000
==== e(  31) =     3.64018 eV ==== 
 
    |psi|^2 = 0.000
==== e(  32) =     3.64157 eV ==== 
 
    |psi|^2 = 0.000
==== e(  33) =     4.44708 eV ==== 
 
    |psi|^2 = 0.001
==== e(  34) =     4.53769 eV ==== 
 
    |psi|^2 = 0.000
==== e(  35) =     4.54875 eV ==== 
 
    |psi|^2 = 0.000
==== e(  36) =     5.17051 eV ==== 
     psi = 0.001*[#   2]
    |psi|^2 = 0.002
==== e(  37) =     5.44384 eV ==== 
 
    |psi|^2 = 0.000
==== e(  38) =     5.44979 eV ==== 
 
    |psi|^2 = 0.000
==== e(  39) =     6.49100 eV ==== 
     psi = 0.006*[#   2]+0.001*[#   9]+0.001*[#  10]
    |psi|^2 = 0.009
==== e(  40) =     6.60061 eV ==== 
 
    |psi|^2 = 0.000

 k =   0.0000000000  0.5329387100  0.0000000000
==== e(   1) =   -67.14666 eV ==== 
     psi = 0.988*[#   1]+0.007*[#   2]+0.002*[#   9]+0.002*[#  10]
    |psi|^2 = 1.000
==== e(   2) =   -41.37741 eV ==== 
     psi = 1.000*[#   3]
    |psi|^2 = 1.000
==== e(   3) =   -41.20761 eV ==== 
     psi = 0.500*[#   4]+0.500*[#   5]
    |psi|^2 = 1.000
==== e(   4) =   -40.98949 eV ==== 
     psi = 0.500*[#   4]+0.500*[#   5]
    |psi|^2 = 1.000
==== e(   5) =   -16.72623 eV ==== 
     psi = 0.498*[#  11]+0.498*[#  15]
    |psi|^2 = 0.999
==== e(   6) =   -16.72623 eV ==== 
     psi = 0.498*[#  11]+0.498*[#  15]
    |psi|^2 = 0.999
==== e(   7) =    -9.15517 eV ==== 
     psi = 0.249*[#  13]+0.249*[#  14]+0.249*[#  17]+0.249*[#  18]+0.002*[#  11]
          +0.002*[#  15]
    |psi|^2 = 0.998
==== e(   8) =    -9.15517 eV ==== 
     psi = 0.249*[#  13]+0.249*[#  14]+0.249*[#  17]+0.249*[#  18]+0.002*[#  11]
          +0.002*[#  15]
    |psi|^2 = 0.998
==== e(   9) =    -8.26007 eV ==== 
     psi = 0.425*[#   9]+0.425*[#  10]+0.093*[#   2]+0.055*[#   6]
    |psi|^2 = 0.999
==== e(  10) =    -7.30528 eV ==== 
     psi = 0.499*[#   7]+0.499*[#   8]
    |psi|^2 = 0.997
==== e(  11) =    -6.16873 eV ==== 
     psi = 0.500*[#  12]+0.500*[#  16]
    |psi|^2 = 1.000
==== e(  12) =    -6.16873 eV ==== 
     psi = 0.500*[#  12]+0.500*[#  16]
    |psi|^2 = 1.000
==== e(  13) =    -5.72600 eV ==== 
     psi = 0.885*[#   6]+0.096*[#   2]+0.009*[#   9]+0.009*[#  10]
    |psi|^2 = 1.000
==== e(  14) =    -5.39180 eV ==== 
     psi = 0.250*[#  13]+0.250*[#  14]+0.250*[#  17]+0.250*[#  18]
    |psi|^2 = 0.999
==== e(  15) =    -5.39180 eV ==== 
     psi = 0.250*[#  13]+0.250*[#  14]+0.250*[#  17]+0.250*[#  18]
    |psi|^2 = 0.999
==== e(  16) =    -5.31980 eV ==== 
     psi = 0.500*[#   7]+0.500*[#   8]
    |psi|^2 = 1.000
==== e(  17) =    -4.09220 eV ==== 
     psi = 0.168*[#   2]+0.015*[#   9]+0.015*[#  10]+0.013*[#   6]+0.002*[#   1]
          
    |psi|^2 = 0.214
==== e(  18) =    -3.67004 eV ==== 
     psi = 0.500*[#   9]+0.500*[#  10]
    |psi|^2 = 0.999
==== e(  19) =    -0.18002 eV ==== 
 
    |psi|^2 = 0.001
==== e(  20) =     0.13317 eV ==== 
     psi = 0.597*[#   2]+0.045*[#   9]+0.045*[#  10]+0.044*[#   6]+0.008*[#   1]
          
    |psi|^2 = 0.739
==== e(  21) =     1.99555 eV ==== 
 
    |psi|^2 = 0.000
==== e(  22) =     1.99558 eV ==== 
 
    |psi|^2 = 0.000
==== e(  23) =     2.60002 eV ==== 
 
    |psi|^2 = 0.001
==== e(  24) =     2.60003 eV ==== 
 
    |psi|^2 = 0.001
==== e(  25) =     2.63506 eV ==== 
 
    |psi|^2 = 0.000
==== e(  26) =     2.75321 eV ==== 
     psi = 0.005*[#   2]
    |psi|^2 = 0.006
==== e(  27) =     3.84157 eV ==== 
 
    |psi|^2 = 0.000
==== e(  28) =     3.84175 eV ==== 
 
    |psi|^2 = 0.000
==== e(  29) =     4.07110 eV ==== 
 
    |psi|^2 = 0.000
==== e(  30) =     4.07140 eV ==== 
 
    |psi|^2 = 0.000
==== e(  31) =     4.46719 eV ==== 
     psi = 0.018*[#   2]+0.002*[#   9]+0.002*[#  10]+0.001*[#   6]
    |psi|^2 = 0.023
==== e(  32) =     4.62756 eV ==== 
 
    |psi|^2 = 0.000
==== e(  33) =     4.83857 eV ==== 
 
    |psi|^2 = 0.000
==== e(  34) =     4.84202 eV ==== 
 
    |psi|^2 = 0.000
==== e(  35) =     5.35249 eV ==== 
 
    |psi|^2 = 0.000
==== e(  36) =     5.35302 eV ==== 
 
    |psi|^2 = 0.000
==== e(  37) =     5.50385 eV ==== 
 
    |psi|^2 = 0.000
==== e(  38) =     5.50771 eV ==== 
 
    |psi|^2 = 0.000
==== e(  39) =     5.60026 eV ==== 
 
    |psi|^2 = 0.000
==== e(  40) =     5.60062 eV ==== 
 
    |psi|^2 = 0.000

 k =   0.0769230769  0.1332346775  0.0000000000
==== e(   1) =   -67.17249 eV ==== 
     psi = 0.986*[#   1]+0.012*[#   2]+0.001*[#   6]
    |psi|^2 = 1.000
==== e(   2) =   -41.40823 eV ==== 
     psi = 1.000*[#   3]
    |psi|^2 = 1.000
==== e(   3) =   -40.96736 eV ==== 
     psi = 0.498*[#   4]+0.498*[#   5]+0.003*[#   2]
    |psi|^2 = 1.000
==== e(   4) =   -40.93154 eV ==== 
     psi = 0.500*[#   4]+0.500*[#   5]
    |psi|^2 = 1.000
==== e(   5) =   -18.02503 eV ==== 
     psi = 0.488*[#  11]+0.488*[#  15]+0.006*[#  13]+0.006*[#  14]+0.006*[#  17]
          +0.006*[#  18]
    |psi|^2 = 0.999
==== e(   6) =   -18.02503 eV ==== 
     psi = 0.488*[#  11]+0.488*[#  15]+0.006*[#  13]+0.006*[#  14]+0.006*[#  17]
          +0.006*[#  18]
    |psi|^2 = 0.999
==== e(   7) =    -9.26830 eV ==== 
     psi = 0.785*[#   2]+0.186*[#   6]+0.013*[#   1]+0.003*[#   9]+0.003*[#  10]
          +0.002*[#   4]+0.002*[#   5]
    |psi|^2 = 0.994
==== e(   8) =    -7.40661 eV ==== 
     psi = 0.499*[#  12]+0.499*[#  16]
    |psi|^2 = 0.999
==== e(   9) =    -7.40661 eV ==== 
     psi = 0.499*[#  12]+0.499*[#  16]
    |psi|^2 = 0.999
==== e(  10) =    -6.64858 eV ==== 
     psi = 0.804*[#   6]+0.193*[#   2]
    |psi|^2 = 0.998
==== e(  11) =    -6.42187 eV ==== 
     psi = 0.499*[#   9]+0.499*[#  10]
    |psi|^2 = 0.997
==== e(  12) =    -5.87878 eV ==== 
     psi = 0.407*[#   7]+0.407*[#   8]
    |psi|^2 = 0.815
==== e(  13) =    -5.81734 eV ==== 
     psi = 0.496*[#   9]+0.496*[#  10]+0.004*[#   6]+0.003*[#   2]
    |psi|^2 = 0.998
==== e(  14) =    -5.25394 eV ==== 
     psi = 0.243*[#  13]+0.243*[#  14]+0.243*[#  17]+0.243*[#  18]+0.012*[#  11]
          +0.012*[#  15]
    |psi|^2 = 0.997
==== e(  15) =    -5.25394 eV ==== 
     psi = 0.243*[#  13]+0.243*[#  14]+0.243*[#  17]+0.243*[#  18]+0.012*[#  11]
          +0.012*[#  15]
    |psi|^2 = 0.997
==== e(  16) =    -4.95203 eV ==== 
     psi = 0.500*[#   7]+0.500*[#   8]
    |psi|^2 = 1.000
==== e(  17) =    -4.51737 eV ==== 
     psi = 0.249*[#  13]+0.249*[#  14]+0.249*[#  17]+0.249*[#  18]
    |psi|^2 = 0.998
==== e(  18) =    -4.51737 eV ==== 
     psi = 0.249*[#  13]+0.249*[#  14]+0.249*[#  17]+0.249*[#  18]
    |psi|^2 = 0.998
==== e(  19) =    -3.71901 eV ==== 
     psi = 0.090*[#   7]+0.090*[#   8]
    |psi|^2 = 0.180
==== e(  20) =    -0.63614 eV ==== 
     psi = 0.002*[#   6]+0.002*[#   2]
    |psi|^2 = 0.004
==== e(  21) =    -0.02315 eV ==== 
 
    |psi|^2 = 0.000
==== e(  22) =    -0.02220 eV ==== 
 
    |psi|^2 = 0.000
==== e(  23) =     0.25488 eV ==== 
 
    |psi|^2 = 0.000
==== e(  24) =     0.25630 eV ==== 
 
    |psi|^2 = 0.000
==== e(  25) =     0.36374 eV ==== 
     psi = 0.002*[#   7]+0.002*[#   8]
    |psi|^2 = 0.003
==== e(  26) =     0.99196 eV ==== 
 
    |psi|^2 = 0.000
==== e(  27) =     0.99460 eV ==== 
 
    |psi|^2 = 0.000
==== e(  28) =     1.51253 eV ==== 
 
    |psi|^2 = 0.000
==== e(  29) =     1.51659 eV ==== 
 
    |psi|^2 = 0.000
==== e(  30) =     2.64795 eV ==== 
 
    |psi|^2 = 0.000
==== e(  31) =     2.65596 eV ==== 
 
    |psi|^2 = 0.000
==== e(  32) =     3.37409 eV ==== 
 
    |psi|^2 = 0.002
==== e(  33) =     4.15971 eV ==== 
 
    |psi|^2 = 0.000
==== e(  34) =     4.18354 eV ==== 
 
    |psi|^2 = 0.000
==== e(  35) =     4.85135 eV ==== 
 
    |psi|^2 = 0.001
==== e(  36) =     5.02153 eV ==== 
 
    |psi|^2 = 0.000
==== e(  37) =     5.07573 eV ==== 
 
    |psi|^2 = 0.000
==== e(  38) =     5.16814 eV ==== 
 
    |psi|^2 = 0.001
==== e(  39) =     5.20591 eV ==== 
 
    |psi|^2 = 0.001
==== e(  40) =     5.71738 eV ==== 
 
    |psi|^2 = 0.002

 k =   0.0769230769  0.2220577958  0.0000000000
==== e(   1) =   -67.16649 eV ==== 
     psi = 0.993*[#   1]+0.006*[#   2]
    |psi|^2 = 1.000
==== e(   2) =   -41.40106 eV ==== 
     psi = 0.999*[#   3]
    |psi|^2 = 1.000
==== e(   3) =   -41.02200 eV ==== 
     psi = 0.496*[#   4]+0.496*[#   5]+0.006*[#   2]+0.001*[#   6]
    |psi|^2 = 1.000
==== e(   4) =   -40.94724 eV ==== 
     psi = 0.500*[#   4]+0.500*[#   5]
    |psi|^2 = 1.000
==== e(   5) =   -17.77512 eV ==== 
     psi = 0.480*[#  11]+0.480*[#  15]+0.010*[#  13]+0.010*[#  14]+0.010*[#  17]
          +0.010*[#  18]
    |psi|^2 = 0.999
==== e(   6) =   -17.77512 eV ==== 
     psi = 0.480*[#  11]+0.480*[#  15]+0.010*[#  13]+0.010*[#  14]+0.010*[#  17]
          +0.010*[#  18]
    |psi|^2 = 0.999
==== e(   7) =    -8.70797 eV ==== 
     psi = 0.760*[#   2]+0.176*[#   6]+0.022*[#   9]+0.022*[#  10]+0.007*[#   1]
          +0.003*[#   4]+0.003*[#   5]
    |psi|^2 = 0.993
==== e(   8) =    -7.16349 eV ==== 
     psi = 0.499*[#  12]+0.499*[#  16]
    |psi|^2 = 0.998
==== e(   9) =    -7.16349 eV ==== 
     psi = 0.499*[#  12]+0.499*[#  16]
    |psi|^2 = 0.998
==== e(  10) =    -6.65784 eV ==== 
     psi = 0.476*[#   9]+0.476*[#  10]+0.035*[#   2]+0.007*[#   6]
    |psi|^2 = 0.995
==== e(  11) =    -6.45242 eV ==== 
     psi = 0.801*[#   6]+0.171*[#   2]+0.013*[#   9]+0.013*[#  10]
    |psi|^2 = 0.998
==== e(  12) =    -6.33339 eV ==== 
     psi = 0.454*[#   7]+0.454*[#   8]
    |psi|^2 = 0.909
==== e(  13) =    -6.21733 eV ==== 
     psi = 0.239*[#  13]+0.239*[#  14]+0.239*[#  17]+0.239*[#  18]+0.020*[#  11]
          +0.020*[#  15]
    |psi|^2 = 0.996
==== e(  14) =    -6.21733 eV ==== 
     psi = 0.239*[#  13]+0.239*[#  14]+0.239*[#  17]+0.239*[#  18]+0.020*[#  11]
          +0.020*[#  15]
    |psi|^2 = 0.996
==== e(  15) =    -5.36589 eV ==== 
     psi = 0.485*[#   9]+0.485*[#  10]+0.015*[#   2]+0.010*[#   6]
    |psi|^2 = 0.996
==== e(  16) =    -5.06557 eV ==== 
     psi = 0.500*[#   7]+0.500*[#   8]
    |psi|^2 = 0.999
==== e(  17) =    -4.82618 eV ==== 
     psi = 0.249*[#  13]+0.249*[#  14]+0.249*[#  17]+0.249*[#  18]
    |psi|^2 = 0.995
==== e(  18) =    -4.82618 eV ==== 
     psi = 0.249*[#  13]+0.249*[#  14]+0.249*[#  17]+0.249*[#  18]
    |psi|^2 = 0.995
==== e(  19) =    -3.03532 eV ==== 
     psi = 0.043*[#   7]+0.043*[#   8]
    |psi|^2 = 0.085
==== e(  20) =    -0.22764 eV ==== 
     psi = 0.002*[#   6]+0.002*[#   2]
    |psi|^2 = 0.004
==== e(  21) =     0.44388 eV ==== 
 
    |psi|^2 = 0.000
==== e(  22) =     0.44466 eV ==== 
 
    |psi|^2 = 0.000
==== e(  23) =     0.71865 eV ==== 
 
    |psi|^2 = 0.001
==== e(  24) =     0.71935 eV ==== 
 
    |psi|^2 = 0.001
==== e(  25) =     0.91620 eV ==== 
     psi = 0.002*[#   7]+0.002*[#   8]
    |psi|^2 = 0.004
==== e(  26) =     1.44224 eV ==== 
 
    |psi|^2 = 0.001
==== e(  27) =     1.44523 eV ==== 
 
    |psi|^2 = 0.001
==== e(  28) =     1.90353 eV ==== 
 
    |psi|^2 = 0.000
==== e(  29) =     1.90718 eV ==== 
 
    |psi|^2 = 0.000
==== e(  30) =     3.06600 eV ==== 
 
    |psi|^2 = 0.000
==== e(  31) =     3.07403 eV ==== 
 
    |psi|^2 = 0.000
==== e(  32) =     3.73970 eV ==== 
 
    |psi|^2 = 0.002
==== e(  33) =     4.59054 eV ==== 
 
    |psi|^2 = 0.001
==== e(  34) =     4.61307 eV ==== 
 
    |psi|^2 = 0.001
==== e(  35) =     4.83457 eV ==== 
 
    |psi|^2 = 0.003
==== e(  36) =     4.83745 eV ==== 
 
    |psi|^2 = 0.003
==== e(  37) =     5.18476 eV ==== 
 
    |psi|^2 = 0.000
==== e(  38) =     5.24055 eV ==== 
 
    |psi|^2 = 0.001
==== e(  39) =     5.42125 eV ==== 
 
    |psi|^2 = 0.001
==== e(  40) =     6.19938 eV ==== 
 
    |psi|^2 = 0.002

 k =   0.0769230769  0.3108809142  0.0000000000
==== e(   1) =   -67.15923 eV ==== 
     psi = 0.998*[#   1]+0.001*[#   2]
    |psi|^2 = 1.000
==== e(   2) =   -41.39240 eV ==== 
     psi = 0.999*[#   3]
    |psi|^2 = 1.000
==== e(   3) =   -41.08726 eV ==== 
     psi = 0.495*[#   4]+0.495*[#   5]+0.008*[#   2]+0.001*[#   6]
    |psi|^2 = 1.000
==== e(   4) =   -40.96621 eV ==== 
     psi = 0.500*[#   4]+0.500*[#   5]
    |psi|^2 = 1.000
==== e(   5) =   -17.43998 eV ==== 
     psi = 0.477*[#  11]+0.477*[#  15]+0.011*[#  13]+0.011*[#  14]+0.011*[#  17]
          +0.011*[#  18]
    |psi|^2 = 0.999
==== e(   6) =   -17.43998 eV ==== 
     psi = 0.477*[#  11]+0.477*[#  15]+0.011*[#  13]+0.011*[#  14]+0.011*[#  17]
          +0.011*[#  18]
    |psi|^2 = 0.999
==== e(   7) =    -8.14140 eV ==== 
     psi = 0.558*[#   2]+0.144*[#   6]+0.141*[#   9]+0.141*[#  10]+0.003*[#   4]
          +0.003*[#   5]+0.002*[#   1]
    |psi|^2 = 0.992
==== e(   8) =    -7.27811 eV ==== 
     psi = 0.238*[#  13]+0.238*[#  14]+0.238*[#  17]+0.238*[#  18]+0.022*[#  11]
          +0.022*[#  15]
    |psi|^2 = 0.996
==== e(   9) =    -7.27811 eV ==== 
     psi = 0.238*[#  13]+0.238*[#  14]+0.238*[#  17]+0.238*[#  18]+0.022*[#  11]
          +0.022*[#  15]
    |psi|^2 = 0.996
==== e(  10) =    -6.84054 eV ==== 
     psi = 0.499*[#  12]+0.499*[#  16]
    |psi|^2 = 0.998
==== e(  11) =    -6.84054 eV ==== 
     psi = 0.499*[#  12]+0.499*[#  16]
    |psi|^2 = 0.998
==== e(  12) =    -6.72913 eV ==== 
     psi = 0.480*[#   7]+0.480*[#   8]
    |psi|^2 = 0.961
==== e(  13) =    -6.65499 eV ==== 
     psi = 0.379*[#   9]+0.379*[#  10]+0.211*[#   2]+0.008*[#   6]+0.002*[#   4]
          +0.002*[#   5]
    |psi|^2 = 0.982
==== e(  14) =    -6.20457 eV ==== 
     psi = 0.827*[#   6]+0.157*[#   2]+0.007*[#   9]+0.007*[#  10]
    |psi|^2 = 0.998
==== e(  15) =    -5.20112 eV ==== 
     psi = 0.499*[#   7]+0.499*[#   8]
    |psi|^2 = 0.999
==== e(  16) =    -5.16149 eV ==== 
     psi = 0.249*[#  13]+0.249*[#  14]+0.249*[#  17]+0.249*[#  18]
    |psi|^2 = 0.994
==== e(  17) =    -5.16149 eV ==== 
     psi = 0.249*[#  13]+0.249*[#  14]+0.249*[#  17]+0.249*[#  18]
    |psi|^2 = 0.994
==== e(  18) =    -4.74742 eV ==== 
     psi = 0.464*[#   9]+0.464*[#  10]+0.046*[#   2]+0.015*[#   6]
    |psi|^2 = 0.991
==== e(  19) =    -2.23446 eV ==== 
     psi = 0.017*[#   7]+0.017*[#   8]
    |psi|^2 = 0.034
==== e(  20) =     0.38734 eV ==== 
     psi = 0.002*[#   6]+0.002*[#   2]
    |psi|^2 = 0.003
==== e(  21) =     1.14122 eV ==== 
 
    |psi|^2 = 0.000
==== e(  22) =     1.14184 eV ==== 
 
    |psi|^2 = 0.000
==== e(  23) =     1.39754 eV ==== 
 
    |psi|^2 = 0.001
==== e(  24) =     1.39807 eV ==== 
 
    |psi|^2 = 0.001
==== e(  25) =     1.68226 eV ==== 
     psi = 0.001*[#   7]+0.001*[#   8]
    |psi|^2 = 0.003
==== e(  26) =     2.06153 eV ==== 
 
    |psi|^2 = 0.001
==== e(  27) =     2.06484 eV ==== 
 
    |psi|^2 = 0.001
==== e(  28) =     2.43209 eV ==== 
 
    |psi|^2 = 0.000
==== e(  29) =     2.43458 eV ==== 
 
    |psi|^2 = 0.000
==== e(  30) =     3.62921 eV ==== 
 
    |psi|^2 = 0.000
==== e(  31) =     3.63587 eV ==== 
 
    |psi|^2 = 0.000
==== e(  32) =     4.11017 eV ==== 
     psi = 0.001*[#  13]+0.001*[#  14]+0.001*[#  17]+0.001*[#  18]
    |psi|^2 = 0.004
==== e(  33) =     4.11108 eV ==== 
     psi = 0.001*[#  13]+0.001*[#  14]+0.001*[#  17]+0.001*[#  18]
    |psi|^2 = 0.004
==== e(  34) =     4.27988 eV ==== 
 
    |psi|^2 = 0.001
==== e(  35) =     4.71896 eV ==== 
     psi = 0.013*[#   2]+0.004*[#   9]+0.004*[#  10]+0.001*[#   6]
    |psi|^2 = 0.021
==== e(  36) =     4.90729 eV ==== 
 
    |psi|^2 = 0.001
==== e(  37) =     4.90889 eV ==== 
 
    |psi|^2 = 0.001
==== e(  38) =     5.40249 eV ==== 
 
    |psi|^2 = 0.001
==== e(  39) =     5.41456 eV ==== 
 
    |psi|^2 = 0.001
==== e(  40) =     6.06341 eV ==== 
 
    |psi|^2 = 0.001

 k =   0.0769230769  0.3997040325  0.0000000000
==== e(   1) =   -67.15238 eV ==== 
     psi = 0.997*[#   1]+0.001*[#   9]+0.001*[#  10]
    |psi|^2 = 1.000
==== e(   2) =   -41.38423 eV ==== 
     psi = 1.000*[#   3]
    |psi|^2 = 1.000
==== e(   3) =   -41.14817 eV ==== 
     psi = 0.496*[#   4]+0.496*[#   5]+0.006*[#   2]
    |psi|^2 = 1.000
==== e(   4) =   -40.98405 eV ==== 
     psi = 0.500*[#   4]+0.500*[#   5]
    |psi|^2 = 1.000
==== e(   5) =   -17.07927 eV ==== 
     psi = 0.483*[#  11]+0.483*[#  15]+0.008*[#  13]+0.008*[#  14]+0.008*[#  17]
          +0.008*[#  18]
    |psi|^2 = 1.000
==== e(   6) =   -17.07927 eV ==== 
     psi = 0.483*[#  11]+0.483*[#  15]+0.008*[#  13]+0.008*[#  14]+0.008*[#  17]
          +0.008*[#  18]
    |psi|^2 = 1.000
==== e(   7) =    -8.23374 eV ==== 
     psi = 0.241*[#  13]+0.241*[#  14]+0.241*[#  17]+0.241*[#  18]+0.017*[#  11]
          +0.017*[#  15]
    |psi|^2 = 0.996
==== e(   8) =    -8.23374 eV ==== 
     psi = 0.241*[#  13]+0.241*[#  14]+0.241*[#  17]+0.241*[#  18]+0.017*[#  11]
          +0.017*[#  15]
    |psi|^2 = 0.996
==== e(   9) =    -8.00929 eV ==== 
     psi = 0.341*[#   9]+0.341*[#  10]+0.228*[#   2]+0.084*[#   6]
    |psi|^2 = 0.995
==== e(  10) =    -7.02971 eV ==== 
     psi = 0.493*[#   7]+0.493*[#   8]
    |psi|^2 = 0.986
==== e(  11) =    -6.49792 eV ==== 
     psi = 0.499*[#  12]+0.499*[#  16]
    |psi|^2 = 0.998
==== e(  12) =    -6.49792 eV ==== 
     psi = 0.499*[#  12]+0.499*[#  16]
    |psi|^2 = 0.998
==== e(  13) =    -5.98791 eV ==== 
     psi = 0.322*[#   2]+0.223*[#   9]+0.223*[#  10]+0.153*[#   6]+0.003*[#   4]
          +0.003*[#   5]
    |psi|^2 = 0.926
==== e(  14) =    -5.95261 eV ==== 
     psi = 0.735*[#   6]+0.254*[#   2]+0.003*[#   9]+0.003*[#  10]
    |psi|^2 = 0.995
==== e(  15) =    -5.44554 eV ==== 
     psi = 0.248*[#  13]+0.248*[#  14]+0.248*[#  17]+0.248*[#  18]
    |psi|^2 = 0.995
==== e(  16) =    -5.44554 eV ==== 
     psi = 0.248*[#  13]+0.248*[#  14]+0.248*[#  17]+0.248*[#  18]
    |psi|^2 = 0.995
==== e(  17) =    -5.32653 eV ==== 
     psi = 0.499*[#   7]+0.499*[#   8]
    |psi|^2 = 0.999
==== e(  18) =    -4.03507 eV ==== 
     psi = 0.419*[#   9]+0.419*[#  10]+0.112*[#   2]+0.018*[#   6]
    |psi|^2 = 0.969
==== e(  19) =    -1.33041 eV ==== 
     psi = 0.006*[#   7]+0.006*[#   8]
    |psi|^2 = 0.012
==== e(  20) =     1.19887 eV ==== 
     psi = 0.003*[#   2]+0.002*[#   6]
    |psi|^2 = 0.005
==== e(  21) =     2.03670 eV ==== 
 
    |psi|^2 = 0.001
==== e(  22) =     2.03701 eV ==== 
 
    |psi|^2 = 0.001
==== e(  23) =     2.22222 eV ==== 
 
    |psi|^2 = 0.001
==== e(  24) =     2.22311 eV ==== 
 
    |psi|^2 = 0.001
==== e(  25) =     2.51132 eV ==== 
 
    |psi|^2 = 0.002
==== e(  26) =     2.51294 eV ==== 
 
    |psi|^2 = 0.002
==== e(  27) =     2.57344 eV ==== 
 
    |psi|^2 = 0.001
==== e(  28) =     2.64633 eV ==== 
     psi = 0.065*[#   2]+0.009*[#   9]+0.009*[#  10]+0.006*[#   6]
    |psi|^2 = 0.090
==== e(  29) =     3.16930 eV ==== 
 
    |psi|^2 = 0.001
==== e(  30) =     3.17115 eV ==== 
 
    |psi|^2 = 0.001
==== e(  31) =     3.58189 eV ==== 
 
    |psi|^2 = 0.004
==== e(  32) =     3.58220 eV ==== 
 
    |psi|^2 = 0.004
==== e(  33) =     4.24887 eV ==== 
 
    |psi|^2 = 0.001
==== e(  34) =     4.25415 eV ==== 
 
    |psi|^2 = 0.001
==== e(  35) =     4.94681 eV ==== 
 
    |psi|^2 = 0.001
==== e(  36) =     5.06421 eV ==== 
 
    |psi|^2 = 0.001
==== e(  37) =     5.14849 eV ==== 
 
    |psi|^2 = 0.000
==== e(  38) =     5.15367 eV ==== 
 
    |psi|^2 = 0.001
==== e(  39) =     6.24536 eV ==== 
 
    |psi|^2 = 0.000
==== e(  40) =     6.24937 eV ==== 
 
    |psi|^2 = 0.000

 k =   0.0769230769  0.4885271509  0.0000000000
==== e(   1) =   -67.14751 eV ==== 
     psi = 0.991*[#   1]+0.005*[#   2]+0.002*[#   9]+0.002*[#  10]
    |psi|^2 = 1.000
==== e(   2) =   -41.37842 eV ==== 
     psi = 1.000*[#   3]
    |psi|^2 = 1.000
==== e(   3) =   -41.19106 eV ==== 
     psi = 0.498*[#   4]+0.498*[#   5]+0.002*[#   2]
    |psi|^2 = 1.000
==== e(   4) =   -40.99666 eV ==== 
     psi = 0.500*[#   4]+0.500*[#   5]
    |psi|^2 = 1.000
==== e(   5) =   -16.78677 eV ==== 
     psi = 0.494*[#  11]+0.494*[#  15]+0.003*[#  13]+0.003*[#  14]+0.003*[#  17]
          +0.003*[#  18]
    |psi|^2 = 0.999
==== e(   6) =   -16.78677 eV ==== 
     psi = 0.494*[#  11]+0.494*[#  15]+0.003*[#  13]+0.003*[#  14]+0.003*[#  17]
          +0.003*[#  18]
    |psi|^2 = 0.999
==== e(   7) =    -8.90980 eV ==== 
     psi = 0.247*[#  13]+0.247*[#  14]+0.247*[#  17]+0.247*[#  18]+0.006*[#  11]
          +0.006*[#  15]
    |psi|^2 = 0.998
==== e(   8) =    -8.90980 eV ==== 
     psi = 0.247*[#  13]+0.247*[#  14]+0.247*[#  17]+0.247*[#  18]+0.006*[#  11]
          +0.006*[#  15]
    |psi|^2 = 0.998
==== e(   9) =    -8.09975 eV ==== 
     psi = 0.415*[#   9]+0.415*[#  10]+0.109*[#   2]+0.057*[#   6]
    |psi|^2 = 0.998
==== e(  10) =    -7.21643 eV ==== 
     psi = 0.498*[#   7]+0.498*[#   8]
    |psi|^2 = 0.995
==== e(  11) =    -6.22489 eV ==== 
     psi = 0.499*[#  12]+0.499*[#  16]
    |psi|^2 = 0.999
==== e(  12) =    -6.22489 eV ==== 
     psi = 0.499*[#  12]+0.499*[#  16]
    |psi|^2 = 0.999
==== e(  13) =    -5.76699 eV ==== 
     psi = 0.885*[#   6]+0.096*[#   2]+0.009*[#   9]+0.009*[#  10]
    |psi|^2 = 0.999
==== e(  14) =    -5.63172 eV ==== 
     psi = 0.249*[#  13]+0.249*[#  14]+0.249*[#  17]+0.249*[#  18]
    |psi|^2 = 0.995
==== e(  15) =    -5.63172 eV ==== 
     psi = 0.249*[#  13]+0.249*[#  14]+0.249*[#  17]+0.249*[#  18]
    |psi|^2 = 0.995
==== e(  16) =    -5.41412 eV ==== 
     psi = 0.499*[#   7]+0.499*[#   8]
    |psi|^2 = 0.998
==== e(  17) =    -5.04804 eV ==== 
     psi = 0.265*[#   2]+0.231*[#   9]+0.231*[#  10]+0.014*[#   6]+0.002*[#   1]
          +0.001*[#   4]+0.001*[#   5]
    |psi|^2 = 0.746
==== e(  18) =    -3.30481 eV ==== 
     psi = 0.311*[#   9]+0.311*[#  10]+0.175*[#   2]+0.016*[#   6]+0.003*[#   1]
          
    |psi|^2 = 0.816
==== e(  19) =    -0.40058 eV ==== 
     psi = 0.002*[#   7]+0.002*[#   8]
    |psi|^2 = 0.004
==== e(  20) =     0.76572 eV ==== 
     psi = 0.317*[#   2]+0.025*[#   9]+0.025*[#  10]+0.025*[#   6]+0.003*[#   1]
          
    |psi|^2 = 0.397
==== e(  21) =     2.16225 eV ==== 
 
    |psi|^2 = 0.001
==== e(  22) =     2.16232 eV ==== 
 
    |psi|^2 = 0.001
==== e(  23) =     2.30354 eV ==== 
     psi = 0.008*[#   2]+0.002*[#   9]+0.002*[#  10]
    |psi|^2 = 0.011
==== e(  24) =     2.98496 eV ==== 
 
    |psi|^2 = 0.000
==== e(  25) =     3.02067 eV ==== 
 
    |psi|^2 = 0.004
==== e(  26) =     3.02083 eV ==== 
 
    |psi|^2 = 0.004
==== e(  27) =     3.27965 eV ==== 
 
    |psi|^2 = 0.000
==== e(  28) =     3.27981 eV ==== 
 
    |psi|^2 = 0.000
==== e(  29) =     3.61611 eV ==== 
 
    |psi|^2 = 0.002
==== e(  30) =     3.61656 eV ==== 
 
    |psi|^2 = 0.001
==== e(  31) =     4.29745 eV ==== 
 
    |psi|^2 = 0.000
==== e(  32) =     4.30236 eV ==== 
 
    |psi|^2 = 0.000
==== e(  33) =     4.40017 eV ==== 
 
    |psi|^2 = 0.001
==== e(  34) =     5.07032 eV ==== 
 
    |psi|^2 = 0.001
==== e(  35) =     5.08276 eV ==== 
 
    |psi|^2 = 0.000
==== e(  36) =     5.13296 eV ==== 
     psi = 0.009*[#   2]
    |psi|^2 = 0.012
==== e(  37) =     5.65339 eV ==== 
     psi = 0.002*[#   2]
    |psi|^2 = 0.004
==== e(  38) =     5.93764 eV ==== 
 
    |psi|^2 = 0.000
==== e(  39) =     5.94518 eV ==== 
 
    |psi|^2 = 0.000
==== e(  40) =     6.27961 eV ==== 
     psi = 0.001*[#   2]
    |psi|^2 = 0.002

 k =   0.0769230769  0.5773502692  0.0000000000
==== e(   1) =   -67.14576 eV ==== 
     psi = 0.987*[#   1]+0.009*[#   2]+0.002*[#   9]+0.002*[#  10]
    |psi|^2 = 1.000
==== e(   2) =   -41.37633 eV ==== 
     psi = 1.000*[#   3]
    |psi|^2 = 1.000
==== e(   3) =   -41.20648 eV ==== 
     psi = 0.500*[#   4]+0.500*[#   5]
    |psi|^2 = 1.000
==== e(   4) =   -41.00120 eV ==== 
     psi = 0.500*[#   4]+0.500*[#   5]
    |psi|^2 = 1.000
==== e(   5) =   -16.67142 eV ==== 
     psi = 0.499*[#  11]+0.499*[#  15]
    |psi|^2 = 0.999
==== e(   6) =   -16.67141 eV ==== 
     psi = 0.499*[#  11]+0.499*[#  15]
    |psi|^2 = 0.999
==== e(   7) =    -9.15708 eV ==== 
     psi = 0.250*[#  13]+0.250*[#  14]+0.250*[#  17]+0.250*[#  18]
    |psi|^2 = 0.998
==== e(   8) =    -9.15708 eV ==== 
     psi = 0.250*[#  13]+0.250*[#  14]+0.250*[#  17]+0.250*[#  18]
    |psi|^2 = 0.998
==== e(   9) =    -8.14759 eV ==== 
     psi = 0.432*[#   9]+0.432*[#  10]+0.082*[#   2]+0.051*[#   6]
    |psi|^2 = 0.998
==== e(  10) =    -7.27966 eV ==== 
     psi = 0.499*[#   7]+0.499*[#   8]
    |psi|^2 = 0.998
==== e(  11) =    -6.11864 eV ==== 
     psi = 0.500*[#  12]+0.500*[#  16]
    |psi|^2 = 1.000
==== e(  12) =    -6.11864 eV ==== 
     psi = 0.500*[#  12]+0.500*[#  16]
    |psi|^2 = 1.000
==== e(  13) =    -5.69691 eV ==== 
     psi = 0.893*[#   6]+0.088*[#   2]+0.009*[#   9]+0.009*[#  10]
    |psi|^2 = 1.000
==== e(  14) =    -5.69620 eV ==== 
     psi = 0.249*[#  13]+0.249*[#  14]+0.249*[#  17]+0.249*[#  18]
    |psi|^2 = 0.995
==== e(  15) =    -5.69620 eV ==== 
     psi = 0.249*[#  13]+0.249*[#  14]+0.249*[#  17]+0.249*[#  18]
    |psi|^2 = 0.995
==== e(  16) =    -5.44546 eV ==== 
     psi = 0.499*[#   7]+0.499*[#   8]
    |psi|^2 = 0.998
==== e(  17) =    -4.60405 eV ==== 
     psi = 0.295*[#   9]+0.295*[#  10]
    |psi|^2 = 0.591
==== e(  18) =    -2.83553 eV ==== 
     psi = 0.204*[#   9]+0.204*[#  10]
    |psi|^2 = 0.408
==== e(  19) =    -0.13472 eV ==== 
     psi = 0.779*[#   2]+0.054*[#   6]+0.052*[#   9]+0.052*[#  10]+0.012*[#   1]
          
    |psi|^2 = 0.949
==== e(  20) =     0.12795 eV ==== 
 
    |psi|^2 = 0.001
==== e(  21) =     2.03928 eV ==== 
 
    |psi|^2 = 0.000
==== e(  22) =     2.03929 eV ==== 
 
    |psi|^2 = 0.000
==== e(  23) =     2.56138 eV ==== 
 
    |psi|^2 = 0.001
==== e(  24) =     2.99122 eV ==== 
 
    |psi|^2 = 0.004
==== e(  25) =     2.99122 eV ==== 
 
    |psi|^2 = 0.004
==== e(  26) =     3.20475 eV ==== 
 
    |psi|^2 = 0.001
==== e(  27) =     4.13936 eV ==== 
     psi = 0.026*[#   2]+0.002*[#   9]+0.002*[#  10]+0.001*[#   6]
    |psi|^2 = 0.032
==== e(  28) =     4.52453 eV ==== 
 
    |psi|^2 = 0.000
==== e(  29) =     4.52467 eV ==== 
 
    |psi|^2 = 0.000
==== e(  30) =     4.67778 eV ==== 
 
    |psi|^2 = 0.000
==== e(  31) =     4.67882 eV ==== 
 
    |psi|^2 = 0.000
==== e(  32) =     4.72869 eV ==== 
 
    |psi|^2 = 0.000
==== e(  33) =     4.72908 eV ==== 
 
    |psi|^2 = 0.000
==== e(  34) =     4.98863 eV ==== 
 
    |psi|^2 = 0.000
==== e(  35) =     5.13235 eV ==== 
 
    |psi|^2 = 0.001
==== e(  36) =     5.13357 eV ==== 
 
    |psi|^2 = 0.001
==== e(  37) =     5.39264 eV ==== 
     psi = 0.002*[#   2]
    |psi|^2 = 0.002
==== e(  38) =     5.45925 eV ==== 
 
    |psi|^2 = 0.000
==== e(  39) =     5.45966 eV ==== 
 
    |psi|^2 = 0.000
==== e(  40) =     5.80274 eV ==== 
 
    |psi|^2 = 0.000

 k =   0.1538461538  0.2664693550  0.0000000000
==== e(   1) =   -67.16025 eV ==== 
     psi = 0.997*[#   1]+0.002*[#   2]
    |psi|^2 = 1.000
==== e(   2) =   -41.39362 eV ==== 
     psi = 0.999*[#   3]
    |psi|^2 = 1.000
==== e(   3) =   -41.07241 eV ==== 
     psi = 0.496*[#   4]+0.496*[#   5]+0.008*[#   2]+0.001*[#   6]
    |psi|^2 = 1.000
==== e(   4) =   -40.96932 eV ==== 
     psi = 0.499*[#   4]+0.499*[#   5]
    |psi|^2 = 1.000
==== e(   5) =   -17.49090 eV ==== 
     psi = 0.477*[#  11]+0.477*[#  15]+0.012*[#  13]+0.012*[#  14]+0.012*[#  17]
          +0.012*[#  18]
    |psi|^2 = 1.000
==== e(   6) =   -17.49090 eV ==== 
     psi = 0.477*[#  11]+0.477*[#  15]+0.012*[#  13]+0.012*[#  14]+0.012*[#  17]
          +0.012*[#  18]
    |psi|^2 = 1.000
==== e(   7) =    -8.07738 eV ==== 
     psi = 0.709*[#   2]+0.167*[#   6]+0.051*[#   9]+0.051*[#  10]+0.004*[#   4]
          +0.004*[#   5]+0.002*[#   1]
    |psi|^2 = 0.989
==== e(   8) =    -7.01161 eV ==== 
     psi = 0.237*[#  13]+0.237*[#  14]+0.237*[#  17]+0.237*[#  18]+0.023*[#  11]
          +0.023*[#  15]
    |psi|^2 = 0.996
==== e(   9) =    -7.01161 eV ==== 
     psi = 0.237*[#  13]+0.237*[#  14]+0.237*[#  17]+0.237*[#  18]+0.023*[#  11]
          +0.023*[#  15]
    |psi|^2 = 0.996
==== e(  10) =    -6.90289 eV ==== 
     psi = 0.496*[#   9]+0.496*[#  10]
    |psi|^2 = 0.994
==== e(  11) =    -6.88938 eV ==== 
     psi = 0.499*[#  12]+0.499*[#  16]
    |psi|^2 = 0.998
==== e(  12) =    -6.88938 eV ==== 
     psi = 0.499*[#  12]+0.499*[#  16]
    |psi|^2 = 0.998
==== e(  13) =    -6.64443 eV ==== 
     psi = 0.477*[#   7]+0.477*[#   8]
    |psi|^2 = 0.954
==== e(  14) =    -6.24819 eV ==== 
     psi = 0.802*[#   6]+0.195*[#   2]
    |psi|^2 = 0.998
==== e(  15) =    -5.31318 eV ==== 
     psi = 0.248*[#  13]+0.248*[#  14]+0.248*[#  17]+0.248*[#  18]
    |psi|^2 = 0.991
==== e(  16) =    -5.31318 eV ==== 
     psi = 0.248*[#  13]+0.248*[#  14]+0.248*[#  17]+0.248*[#  18]
    |psi|^2 = 0.991
==== e(  17) =    -5.24471 eV ==== 
     psi = 0.499*[#   7]+0.499*[#   8]
    |psi|^2 = 0.999
==== e(  18) =    -4.74805 eV ==== 
     psi = 0.445*[#   9]+0.445*[#  10]+0.072*[#   2]+0.025*[#   6]
    |psi|^2 = 0.989
==== e(  19) =    -2.33187 eV ==== 
     psi = 0.020*[#   7]+0.020*[#   8]
    |psi|^2 = 0.041
==== e(  20) =     0.28798 eV ==== 
     psi = 0.002*[#   6]+0.001*[#   2]
    |psi|^2 = 0.003
==== e(  21) =     1.02588 eV ==== 
 
    |psi|^2 = 0.000
==== e(  22) =     1.02652 eV ==== 
 
    |psi|^2 = 0.000
==== e(  23) =     1.28921 eV ==== 
 
    |psi|^2 = 0.001
==== e(  24) =     1.28971 eV ==== 
 
    |psi|^2 = 0.001
==== e(  25) =     1.57189 eV ==== 
     psi = 0.002*[#   7]+0.002*[#   8]
    |psi|^2 = 0.003
==== e(  26) =     1.97314 eV ==== 
 
    |psi|^2 = 0.001
==== e(  27) =     1.97649 eV ==== 
 
    |psi|^2 = 0.001
==== e(  28) =     2.35404 eV ==== 
 
    |psi|^2 = 0.000
==== e(  29) =     2.35682 eV ==== 
 
    |psi|^2 = 0.000
==== e(  30) =     3.55465 eV ==== 
 
    |psi|^2 = 0.000
==== e(  31) =     3.56196 eV ==== 
 
    |psi|^2 = 0.000
==== e(  32) =     4.19626 eV ==== 
 
    |psi|^2 = 0.001
==== e(  33) =     4.95623 eV ==== 
     psi = 0.002*[#  13]+0.002*[#  14]+0.002*[#  17]+0.002*[#  18]
    |psi|^2 = 0.009
==== e(  34) =     4.95623 eV ==== 
     psi = 0.002*[#  13]+0.002*[#  14]+0.002*[#  17]+0.002*[#  18]
    |psi|^2 = 0.009
==== e(  35) =     4.96380 eV ==== 
 
    |psi|^2 = 0.001
==== e(  36) =     4.97424 eV ==== 
 
    |psi|^2 = 0.001
==== e(  37) =     5.31497 eV ==== 
 
    |psi|^2 = 0.001
==== e(  38) =     5.34379 eV ==== 
 
    |psi|^2 = 0.001
==== e(  39) =     5.72908 eV ==== 
     psi = 0.010*[#   2]+0.002*[#   9]+0.002*[#  10]
    |psi|^2 = 0.015
==== e(  40) =     6.06509 eV ==== 
 
    |psi|^2 = 0.001

 k =   0.1538461538  0.3552924733  0.0000000000
==== e(   1) =   -67.15362 eV ==== 
     psi = 0.998*[#   1]
    |psi|^2 = 1.000
==== e(   2) =   -41.38571 eV ==== 
     psi = 0.999*[#   3]
    |psi|^2 = 1.000
==== e(   3) =   -41.12358 eV ==== 
     psi = 0.496*[#   4]+0.496*[#   5]+0.007*[#   2]+0.001*[#   6]
    |psi|^2 = 1.000
==== e(   4) =   -40.99470 eV ==== 
     psi = 0.499*[#   4]+0.499*[#   5]
    |psi|^2 = 1.000
==== e(   5) =   -17.15276 eV ==== 
     psi = 0.480*[#  11]+0.480*[#  15]+0.010*[#  13]+0.010*[#  14]+0.010*[#  17]
          +0.010*[#  18]
    |psi|^2 = 1.000
==== e(   6) =   -17.15276 eV ==== 
     psi = 0.480*[#  11]+0.480*[#  15]+0.010*[#  13]+0.010*[#  14]+0.010*[#  17]
          +0.010*[#  18]
    |psi|^2 = 1.000
==== e(   7) =    -7.82295 eV ==== 
     psi = 0.239*[#  13]+0.239*[#  14]+0.239*[#  17]+0.239*[#  18]+0.020*[#  11]
          +0.020*[#  15]
    |psi|^2 = 0.997
==== e(   8) =    -7.82295 eV ==== 
     psi = 0.239*[#  13]+0.239*[#  14]+0.239*[#  17]+0.239*[#  18]+0.020*[#  11]
          +0.020*[#  15]
    |psi|^2 = 0.997
==== e(   9) =    -7.59084 eV ==== 
     psi = 0.374*[#   2]+0.248*[#   9]+0.248*[#  10]+0.112*[#   6]+0.002*[#   4]
          +0.002*[#   5]
    |psi|^2 = 0.987
==== e(  10) =    -6.89426 eV ==== 
     psi = 0.489*[#   7]+0.489*[#   8]
    |psi|^2 = 0.979
==== e(  11) =    -6.82970 eV ==== 
     psi = 0.362*[#   9]+0.362*[#  10]+0.201*[#   2]+0.047*[#   6]+0.002*[#   4]
          +0.002*[#   5]
    |psi|^2 = 0.977
==== e(  12) =    -6.56750 eV ==== 
     psi = 0.499*[#  12]+0.499*[#  16]
    |psi|^2 = 0.998
==== e(  13) =    -6.56750 eV ==== 
     psi = 0.499*[#  12]+0.499*[#  16]
    |psi|^2 = 0.998
==== e(  14) =    -6.00653 eV ==== 
     psi = 0.802*[#   6]+0.194*[#   2]
    |psi|^2 = 0.998
==== e(  15) =    -5.80943 eV ==== 
     psi = 0.247*[#  13]+0.247*[#  14]+0.247*[#  17]+0.247*[#  18]
    |psi|^2 = 0.989
==== e(  16) =    -5.80943 eV ==== 
     psi = 0.247*[#  13]+0.247*[#  14]+0.247*[#  17]+0.247*[#  18]
    |psi|^2 = 0.989
==== e(  17) =    -5.45224 eV ==== 
     psi = 0.499*[#   7]+0.499*[#   8]
    |psi|^2 = 0.998
==== e(  18) =    -3.94487 eV ==== 
     psi = 0.377*[#   9]+0.377*[#  10]+0.178*[#   2]+0.032*[#   6]+0.001*[#   1]
          
    |psi|^2 = 0.966
==== e(  19) =    -1.47578 eV ==== 
     psi = 0.009*[#   7]+0.009*[#   8]
    |psi|^2 = 0.017
==== e(  20) =     1.01776 eV ==== 
     psi = 0.001*[#   6]
    |psi|^2 = 0.003
==== e(  21) =     1.83076 eV ==== 
 
    |psi|^2 = 0.000
==== e(  22) =     1.83122 eV ==== 
 
    |psi|^2 = 0.000
==== e(  23) =     2.05550 eV ==== 
 
    |psi|^2 = 0.001
==== e(  24) =     2.05613 eV ==== 
 
    |psi|^2 = 0.001
==== e(  25) =     2.42390 eV ==== 
 
    |psi|^2 = 0.002
==== e(  26) =     2.49942 eV ==== 
 
    |psi|^2 = 0.001
==== e(  27) =     2.50191 eV ==== 
 
    |psi|^2 = 0.001
==== e(  28) =     2.99110 eV ==== 
 
    |psi|^2 = 0.000
==== e(  29) =     2.99334 eV ==== 
 
    |psi|^2 = 0.000
==== e(  30) =     3.67557 eV ==== 
     psi = 0.037*[#   2]+0.005*[#   9]+0.005*[#  10]+0.003*[#   6]
    |psi|^2 = 0.051
==== e(  31) =     4.14596 eV ==== 
 
    |psi|^2 = 0.001
==== e(  32) =     4.15169 eV ==== 
 
    |psi|^2 = 0.001
==== e(  33) =     4.66825 eV ==== 
     psi = 0.002*[#  13]+0.002*[#  14]+0.002*[#  17]+0.002*[#  18]
    |psi|^2 = 0.009
==== e(  34) =     4.66852 eV ==== 
     psi = 0.002*[#  13]+0.002*[#  14]+0.002*[#  17]+0.002*[#  18]
    |psi|^2 = 0.009
==== e(  35) =     4.82353 eV ==== 
 
    |psi|^2 = 0.001
==== e(  36) =     5.13401 eV ==== 
 
    |psi|^2 = 0.001
==== e(  37) =     5.13665 eV ==== 
 
    |psi|^2 = 0.001
==== e(  38) =     5.22223 eV ==== 
     psi = 0.003*[#   2]+0.003*[#   9]+0.003*[#  10]
    |psi|^2 = 0.009
==== e(  39) =     5.98452 eV ==== 
 
    |psi|^2 = 0.001
==== e(  40) =     6.03991 eV ==== 
 
    |psi|^2 = 0.000

 k =   0.1538461538  0.4441155917  0.0000000000
==== e(   1) =   -67.14812 eV ==== 
     psi = 0.994*[#   1]+0.004*[#   2]+0.001*[#   9]+0.001*[#  10]
    |psi|^2 = 1.000
==== e(   2) =   -41.37915 eV ==== 
     psi = 1.000*[#   3]
    |psi|^2 = 1.000
==== e(   3) =   -41.16498 eV ==== 
     psi = 0.497*[#   4]+0.497*[#   5]+0.004*[#   2]
    |psi|^2 = 1.000
==== e(   4) =   -41.01645 eV ==== 
     psi = 0.499*[#   4]+0.499*[#   5]
    |psi|^2 = 1.000
==== e(   5) =   -16.83432 eV ==== 
     psi = 0.489*[#  11]+0.489*[#  15]+0.006*[#  13]+0.006*[#  14]+0.006*[#  17]
          +0.006*[#  18]
    |psi|^2 = 1.000
==== e(   6) =   -16.83432 eV ==== 
     psi = 0.489*[#  11]+0.489*[#  15]+0.006*[#  13]+0.006*[#  14]+0.006*[#  17]
          +0.006*[#  18]
    |psi|^2 = 1.000
==== e(   7) =    -8.51122 eV ==== 
     psi = 0.244*[#  13]+0.244*[#  14]+0.244*[#  17]+0.244*[#  18]+0.011*[#  11]
          +0.011*[#  15]
    |psi|^2 = 0.997
==== e(   8) =    -8.51122 eV ==== 
     psi = 0.244*[#  13]+0.244*[#  14]+0.244*[#  17]+0.244*[#  18]+0.011*[#  11]
          +0.011*[#  15]
    |psi|^2 = 0.997
==== e(   9) =    -7.67404 eV ==== 
     psi = 0.408*[#   9]+0.408*[#  10]+0.119*[#   2]+0.054*[#   6]+0.001*[#   4]
          +0.001*[#   5]
    |psi|^2 = 0.992
==== e(  10) =    -7.06134 eV ==== 
     psi = 0.496*[#   7]+0.496*[#   8]
    |psi|^2 = 0.992
==== e(  11) =    -6.26946 eV ==== 
     psi = 0.499*[#  12]+0.499*[#  16]
    |psi|^2 = 0.998
==== e(  12) =    -6.26946 eV ==== 
     psi = 0.499*[#  12]+0.499*[#  16]
    |psi|^2 = 0.998
==== e(  13) =    -6.17825 eV ==== 
     psi = 0.247*[#  13]+0.247*[#  14]+0.247*[#  17]+0.247*[#  18]
    |psi|^2 = 0.990
==== e(  14) =    -6.17825 eV ==== 
     psi = 0.247*[#  13]+0.247*[#  14]+0.247*[#  17]+0.247*[#  18]
    |psi|^2 = 0.990
==== e(  15) =    -6.08830 eV ==== 
     psi = 0.282*[#   9]+0.282*[#  10]+0.180*[#   2]+0.170*[#   6]+0.002*[#   4]
          +0.002*[#   5]
    |psi|^2 = 0.919
==== e(  16) =    -5.78289 eV ==== 
     psi = 0.731*[#   6]+0.219*[#   2]+0.019*[#   9]+0.019*[#  10]
    |psi|^2 = 0.989
==== e(  17) =    -5.63160 eV ==== 
     psi = 0.498*[#   7]+0.498*[#   8]
    |psi|^2 = 0.997
==== e(  18) =    -3.02822 eV ==== 
     psi = 0.296*[#   2]+0.270*[#   9]+0.270*[#  10]+0.031*[#   6]+0.004*[#   1]
          
    |psi|^2 = 0.871
==== e(  19) =    -0.51198 eV ==== 
     psi = 0.003*[#   7]+0.003*[#   8]
    |psi|^2 = 0.007
==== e(  20) =     1.61560 eV ==== 
     psi = 0.129*[#   2]+0.011*[#   6]+0.008*[#   9]+0.008*[#  10]
    |psi|^2 = 0.157
==== e(  21) =     2.06758 eV ==== 
     psi = 0.030*[#   2]+0.005*[#   9]+0.005*[#  10]
    |psi|^2 = 0.041
==== e(  22) =     2.40155 eV ==== 
 
    |psi|^2 = 0.001
==== e(  23) =     2.40166 eV ==== 
 
    |psi|^2 = 0.001
==== e(  24) =     2.92018 eV ==== 
 
    |psi|^2 = 0.000
==== e(  25) =     2.92094 eV ==== 
 
    |psi|^2 = 0.000
==== e(  26) =     3.15349 eV ==== 
 
    |psi|^2 = 0.001
==== e(  27) =     3.15354 eV ==== 
 
    |psi|^2 = 0.001
==== e(  28) =     3.28076 eV ==== 
 
    |psi|^2 = 0.001
==== e(  29) =     3.94753 eV ==== 
 
    |psi|^2 = 0.001
==== e(  30) =     3.94894 eV ==== 
 
    |psi|^2 = 0.001
==== e(  31) =     4.37686 eV ==== 
     psi = 0.002*[#  13]+0.002*[#  14]+0.002*[#  17]+0.002*[#  18]
    |psi|^2 = 0.008
==== e(  32) =     4.37701 eV ==== 
     psi = 0.002*[#  13]+0.002*[#  14]+0.002*[#  17]+0.002*[#  18]
    |psi|^2 = 0.008
==== e(  33) =     4.44963 eV ==== 
     psi = 0.008*[#   2]+0.002*[#   9]+0.002*[#  10]
    |psi|^2 = 0.013
==== e(  34) =     4.69162 eV ==== 
 
    |psi|^2 = 0.001
==== e(  35) =     4.87623 eV ==== 
 
    |psi|^2 = 0.000
==== e(  36) =     4.88406 eV ==== 
 
    |psi|^2 = 0.000
==== e(  37) =     5.52898 eV ==== 
 
    |psi|^2 = 0.001
==== e(  38) =     5.72057 eV ==== 
 
    |psi|^2 = 0.000
==== e(  39) =     5.73215 eV ==== 
 
    |psi|^2 = 0.000
==== e(  40) =     6.42569 eV ==== 
 
    |psi|^2 = 0.000

 k =   0.1538461538  0.5329387100  0.0000000000
==== e(   1) =   -67.14501 eV ==== 
     psi = 0.988*[#   1]+0.009*[#   2]+0.001*[#   9]+0.001*[#  10]
    |psi|^2 = 1.000
==== e(   2) =   -41.37544 eV ==== 
     psi = 1.000*[#   3]
    |psi|^2 = 1.000
==== e(   3) =   -41.18806 eV ==== 
     psi = 0.499*[#   4]+0.499*[#   5]
    |psi|^2 = 1.000
==== e(   4) =   -41.02889 eV ==== 
     psi = 0.499*[#   4]+0.499*[#   5]
    |psi|^2 = 1.000
==== e(   5) =   -16.63421 eV ==== 
     psi = 0.497*[#  11]+0.497*[#  15]+0.001*[#  13]+0.001*[#  14]+0.001*[#  17]
          +0.001*[#  18]
    |psi|^2 = 1.000
==== e(   6) =   -16.63421 eV ==== 
     psi = 0.497*[#  11]+0.497*[#  15]+0.001*[#  13]+0.001*[#  14]+0.001*[#  17]
          +0.001*[#  18]
    |psi|^2 = 1.000
==== e(   7) =    -8.91430 eV ==== 
     psi = 0.249*[#  13]+0.249*[#  14]+0.249*[#  17]+0.249*[#  18]+0.001*[#  11]
          +0.001*[#  15]
    |psi|^2 = 0.998
==== e(   8) =    -8.91430 eV ==== 
     psi = 0.249*[#  13]+0.249*[#  14]+0.249*[#  17]+0.249*[#  18]+0.001*[#  11]
          +0.001*[#  15]
    |psi|^2 = 0.998
==== e(   9) =    -7.78119 eV ==== 
     psi = 0.439*[#   9]+0.439*[#  10]+0.070*[#   2]+0.042*[#   6]+0.001*[#   4]
          +0.001*[#   5]
    |psi|^2 = 0.994
==== e(  10) =    -7.14324 eV ==== 
     psi = 0.498*[#   7]+0.498*[#   8]
    |psi|^2 = 0.997
==== e(  11) =    -6.36910 eV ==== 
     psi = 0.247*[#  13]+0.247*[#  14]+0.247*[#  17]+0.247*[#  18]+0.001*[#  11]
          +0.001*[#  15]
    |psi|^2 = 0.991
==== e(  12) =    -6.36910 eV ==== 
     psi = 0.247*[#  13]+0.247*[#  14]+0.247*[#  17]+0.247*[#  18]+0.001*[#  11]
          +0.001*[#  15]
    |psi|^2 = 0.991
==== e(  13) =    -6.08527 eV ==== 
     psi = 0.500*[#  12]+0.500*[#  16]
    |psi|^2 = 0.999
==== e(  14) =    -6.08527 eV ==== 
     psi = 0.500*[#  12]+0.500*[#  16]
    |psi|^2 = 0.999
==== e(  15) =    -5.73533 eV ==== 
     psi = 0.498*[#   7]+0.498*[#   8]
    |psi|^2 = 0.996
==== e(  16) =    -5.69089 eV ==== 
     psi = 0.901*[#   6]+0.062*[#   2]+0.017*[#   9]+0.017*[#  10]
    |psi|^2 = 0.996
==== e(  17) =    -5.43317 eV ==== 
     psi = 0.358*[#   9]+0.358*[#  10]+0.072*[#   2]+0.005*[#   6]
    |psi|^2 = 0.795
==== e(  18) =    -2.10447 eV ==== 
     psi = 0.162*[#   2]+0.145*[#   9]+0.145*[#  10]+0.012*[#   6]+0.003*[#   1]
          
    |psi|^2 = 0.465
==== e(  19) =     0.12739 eV ==== 
     psi = 0.583*[#   2]+0.037*[#   6]+0.032*[#   9]+0.032*[#  10]+0.008*[#   1]
          
    |psi|^2 = 0.693
==== e(  20) =     0.37583 eV ==== 
     psi = 0.001*[#   7]+0.001*[#   8]
    |psi|^2 = 0.003
==== e(  21) =     2.30597 eV ==== 
 
    |psi|^2 = 0.000
==== e(  22) =     2.30599 eV ==== 
 
    |psi|^2 = 0.000
==== e(  23) =     2.94167 eV ==== 
 
    |psi|^2 = 0.001
==== e(  24) =     3.14503 eV ==== 
     psi = 0.006*[#   2]+0.002*[#   9]+0.002*[#  10]
    |psi|^2 = 0.010
==== e(  25) =     3.95668 eV ==== 
     psi = 0.015*[#   2]
    |psi|^2 = 0.017
==== e(  26) =     3.95792 eV ==== 
     psi = 0.001*[#  13]+0.001*[#  14]+0.001*[#  17]+0.001*[#  18]
    |psi|^2 = 0.005
==== e(  27) =     3.95806 eV ==== 
     psi = 0.001*[#  13]+0.001*[#  14]+0.001*[#  17]+0.001*[#  18]
    |psi|^2 = 0.005
==== e(  28) =     4.21490 eV ==== 
 
    |psi|^2 = 0.001
==== e(  29) =     4.21523 eV ==== 
 
    |psi|^2 = 0.001
==== e(  30) =     4.49638 eV ==== 
 
    |psi|^2 = 0.003
==== e(  31) =     4.49655 eV ==== 
 
    |psi|^2 = 0.003
==== e(  32) =     4.86121 eV ==== 
     psi = 0.007*[#   2]+0.002*[#   9]+0.002*[#  10]
    |psi|^2 = 0.012
==== e(  33) =     4.99613 eV ==== 
 
    |psi|^2 = 0.001
==== e(  34) =     5.15440 eV ==== 
 
    |psi|^2 = 0.000
==== e(  35) =     5.15839 eV ==== 
 
    |psi|^2 = 0.000
==== e(  36) =     5.46945 eV ==== 
 
    |psi|^2 = 0.000
==== e(  37) =     5.47111 eV ==== 
 
    |psi|^2 = 0.000
==== e(  38) =     5.72523 eV ==== 
 
    |psi|^2 = 0.000
==== e(  39) =     5.72551 eV ==== 
 
    |psi|^2 = 0.000
==== e(  40) =     5.91370 eV ==== 
 
    |psi|^2 = 0.000

 k =   0.2307692308  0.3997040325  0.0000000000
==== e(   1) =   -67.14834 eV ==== 
     psi = 0.995*[#   1]+0.003*[#   2]
    |psi|^2 = 1.000
==== e(   2) =   -41.37941 eV ==== 
     psi = 1.000*[#   3]
    |psi|^2 = 1.000
==== e(   3) =   -41.15000 eV ==== 
     psi = 0.497*[#   4]+0.497*[#   5]+0.005*[#   2]
    |psi|^2 = 1.000
==== e(   4) =   -41.02923 eV ==== 
     psi = 0.499*[#   4]+0.499*[#   5]+0.001*[#   9]+0.001*[#  10]
    |psi|^2 = 1.000
==== e(   5) =   -16.85232 eV ==== 
     psi = 0.486*[#  11]+0.486*[#  15]+0.007*[#  13]+0.007*[#  14]+0.007*[#  17]
          +0.007*[#  18]
    |psi|^2 = 1.000
==== e(   6) =   -16.85232 eV ==== 
     psi = 0.486*[#  11]+0.486*[#  15]+0.007*[#  13]+0.007*[#  14]+0.007*[#  17]
          +0.007*[#  18]
    |psi|^2 = 1.000
==== e(   7) =    -8.26045 eV ==== 
     psi = 0.243*[#  13]+0.243*[#  14]+0.243*[#  17]+0.243*[#  18]+0.014*[#  11]
          +0.014*[#  15]
    |psi|^2 = 0.997
==== e(   8) =    -8.26045 eV ==== 
     psi = 0.243*[#  13]+0.243*[#  14]+0.243*[#  17]+0.243*[#  18]+0.014*[#  11]
          +0.014*[#  15]
    |psi|^2 = 0.997
==== e(   9) =    -7.13151 eV ==== 
     psi = 0.491*[#   9]+0.491*[#  10]+0.001*[#   4]+0.001*[#   5]
    |psi|^2 = 0.986
==== e(  10) =    -6.97121 eV ==== 
     psi = 0.495*[#   7]+0.495*[#   8]
    |psi|^2 = 0.990
==== e(  11) =    -6.82924 eV ==== 
     psi = 0.355*[#   2]+0.223*[#   9]+0.223*[#  10]+0.150*[#   6]+0.002*[#   4]
          +0.002*[#   5]
    |psi|^2 = 0.956
==== e(  12) =    -6.50588 eV ==== 
     psi = 0.247*[#  13]+0.247*[#  14]+0.247*[#  17]+0.247*[#  18]
    |psi|^2 = 0.989
==== e(  13) =    -6.50588 eV ==== 
     psi = 0.247*[#  13]+0.247*[#  14]+0.247*[#  17]+0.247*[#  18]
    |psi|^2 = 0.989
==== e(  14) =    -6.28642 eV ==== 
     psi = 0.499*[#  12]+0.499*[#  16]
    |psi|^2 = 0.998
==== e(  15) =    -6.28642 eV ==== 
     psi = 0.499*[#  12]+0.499*[#  16]
    |psi|^2 = 0.998
==== e(  16) =    -5.80377 eV ==== 
     psi = 0.804*[#   6]+0.175*[#   2]+0.008*[#   9]+0.008*[#  10]
    |psi|^2 = 0.996
==== e(  17) =    -5.75509 eV ==== 
     psi = 0.499*[#   7]+0.499*[#   8]
    |psi|^2 = 0.997
==== e(  18) =    -2.94099 eV ==== 
     psi = 0.334*[#   2]+0.261*[#   9]+0.261*[#  10]+0.036*[#   6]+0.004*[#   1]
          
    |psi|^2 = 0.896
==== e(  19) =    -0.54498 eV ==== 
     psi = 0.004*[#   7]+0.004*[#   8]
    |psi|^2 = 0.008
==== e(  20) =     1.86446 eV ==== 
     psi = 0.005*[#   2]+0.001*[#   6]
    |psi|^2 = 0.007
==== e(  21) =     2.43582 eV ==== 
     psi = 0.116*[#   2]+0.007*[#   6]+0.005*[#   9]+0.005*[#  10]
    |psi|^2 = 0.134
==== e(  22) =     2.50006 eV ==== 
 
    |psi|^2 = 0.001
==== e(  23) =     2.50016 eV ==== 
 
    |psi|^2 = 0.001
==== e(  24) =     2.82032 eV ==== 
 
    |psi|^2 = 0.000
==== e(  25) =     2.82101 eV ==== 
 
    |psi|^2 = 0.000
==== e(  26) =     3.08279 eV ==== 
 
    |psi|^2 = 0.001
==== e(  27) =     3.08346 eV ==== 
 
    |psi|^2 = 0.001
==== e(  28) =     3.33900 eV ==== 
 
    |psi|^2 = 0.001
==== e(  29) =     3.61695 eV ==== 
     psi = 0.005*[#   9]+0.005*[#  10]
    |psi|^2 = 0.011
==== e(  30) =     3.85902 eV ==== 
 
    |psi|^2 = 0.000
==== e(  31) =     3.86145 eV ==== 
 
    |psi|^2 = 0.000
==== e(  32) =     4.86846 eV ==== 
 
    |psi|^2 = 0.000
==== e(  33) =     4.87427 eV ==== 
 
    |psi|^2 = 0.000
==== e(  34) =     5.25239 eV ==== 
     psi = 0.002*[#  13]+0.002*[#  14]+0.002*[#  17]+0.002*[#  18]
    |psi|^2 = 0.010
==== e(  35) =     5.25239 eV ==== 
     psi = 0.002*[#  13]+0.002*[#  14]+0.002*[#  17]+0.002*[#  18]
    |psi|^2 = 0.010
==== e(  36) =     5.51611 eV ==== 
 
    |psi|^2 = 0.002
==== e(  37) =     5.55429 eV ==== 
 
    |psi|^2 = 0.001
==== e(  38) =     5.75249 eV ==== 
 
    |psi|^2 = 0.000
==== e(  39) =     5.79597 eV ==== 
 
    |psi|^2 = 0.000
==== e(  40) =     5.79597 eV ==== 
 
    |psi|^2 = 0.000

 k =   0.2307692308  0.4885271509  0.0000000000
==== e(   1) =   -67.14459 eV ==== 
     psi = 0.989*[#   1]+0.009*[#   2]
    |psi|^2 = 1.000
==== e(   2) =   -41.37494 eV ==== 
     psi = 1.000*[#   3]
    |psi|^2 = 1.000
==== e(   3) =   -41.16350 eV ==== 
     psi = 0.498*[#   4]+0.498*[#   5]+0.002*[#   2]+0.001*[#   9]+0.001*[#  10]
          
    |psi|^2 = 1.000
==== e(   4) =   -41.05888 eV ==== 
     psi = 0.498*[#   4]+0.498*[#   5]+0.002*[#   9]+0.002*[#  10]
    |psi|^2 = 1.000
==== e(   5) =   -16.61673 eV ==== 
     psi = 0.495*[#  11]+0.495*[#  15]+0.003*[#  13]+0.003*[#  14]+0.003*[#  17]
          +0.003*[#  18]
    |psi|^2 = 1.000
==== e(   6) =   -16.61673 eV ==== 
     psi = 0.495*[#  11]+0.495*[#  15]+0.003*[#  13]+0.003*[#  14]+0.003*[#  17]
          +0.003*[#  18]
    |psi|^2 = 1.000
==== e(   7) =    -8.55291 eV ==== 
     psi = 0.247*[#  13]+0.247*[#  14]+0.247*[#  17]+0.247*[#  18]+0.005*[#  11]
          +0.005*[#  15]
    |psi|^2 = 0.998
==== e(   8) =    -8.55291 eV ==== 
     psi = 0.247*[#  13]+0.247*[#  14]+0.247*[#  17]+0.247*[#  18]+0.005*[#  11]
          +0.005*[#  15]
    |psi|^2 = 0.998
==== e(   9) =    -7.23558 eV ==== 
     psi = 0.461*[#   9]+0.461*[#  10]+0.035*[#   2]+0.021*[#   6]+0.002*[#   4]
          +0.002*[#   5]
    |psi|^2 = 0.981
==== e(  10) =    -7.01456 eV ==== 
     psi = 0.248*[#  13]+0.248*[#  14]+0.248*[#  17]+0.248*[#  18]
    |psi|^2 = 0.991
==== e(  11) =    -7.01456 eV ==== 
     psi = 0.248*[#  13]+0.248*[#  14]+0.248*[#  17]+0.248*[#  18]
    |psi|^2 = 0.991
==== e(  12) =    -6.97027 eV ==== 
     psi = 0.497*[#   7]+0.497*[#   8]
    |psi|^2 = 0.995
==== e(  13) =    -6.25912 eV ==== 
     psi = 0.359*[#   9]+0.359*[#  10]+0.099*[#   2]+0.093*[#   6]+0.002*[#   4]
          +0.002*[#   5]
    |psi|^2 = 0.913
==== e(  14) =    -6.06989 eV ==== 
     psi = 0.500*[#  12]+0.500*[#  16]
    |psi|^2 = 0.999
==== e(  15) =    -6.06989 eV ==== 
     psi = 0.500*[#  12]+0.500*[#  16]
    |psi|^2 = 0.999
==== e(  16) =    -6.01703 eV ==== 
     psi = 0.498*[#   7]+0.498*[#   8]
    |psi|^2 = 0.996
==== e(  17) =    -5.66824 eV ==== 
     psi = 0.839*[#   6]+0.114*[#   2]+0.020*[#   9]+0.020*[#  10]
    |psi|^2 = 0.993
==== e(  18) =    -1.83101 eV ==== 
     psi = 0.393*[#   2]+0.139*[#   9]+0.139*[#  10]+0.027*[#   6]+0.007*[#   1]
          
    |psi|^2 = 0.704
==== e(  19) =     0.47464 eV ==== 
     psi = 0.002*[#   7]+0.002*[#   8]
    |psi|^2 = 0.003
==== e(  20) =     0.90453 eV ==== 
     psi = 0.313*[#   2]+0.017*[#   6]+0.007*[#   9]+0.007*[#  10]+0.004*[#   1]
          
    |psi|^2 = 0.349
==== e(  21) =     2.64192 eV ==== 
 
    |psi|^2 = 0.001
==== e(  22) =     2.64198 eV ==== 
 
    |psi|^2 = 0.001
==== e(  23) =     2.69554 eV ==== 
     psi = 0.014*[#   2]+0.006*[#   9]+0.006*[#  10]
    |psi|^2 = 0.026
==== e(  24) =     3.01183 eV ==== 
     psi = 0.004*[#   2]+0.003*[#   9]+0.003*[#  10]
    |psi|^2 = 0.009
==== e(  25) =     3.72799 eV ==== 
 
    |psi|^2 = 0.001
==== e(  26) =     3.95148 eV ==== 
 
    |psi|^2 = 0.000
==== e(  27) =     3.95166 eV ==== 
 
    |psi|^2 = 0.000
==== e(  28) =     4.13928 eV ==== 
 
    |psi|^2 = 0.000
==== e(  29) =     4.13972 eV ==== 
 
    |psi|^2 = 0.000
==== e(  30) =     4.84413 eV ==== 
 
    |psi|^2 = 0.001
==== e(  31) =     4.88859 eV ==== 
 
    |psi|^2 = 0.000
==== e(  32) =     4.89125 eV ==== 
 
    |psi|^2 = 0.000
==== e(  33) =     5.00815 eV ==== 
 
    |psi|^2 = 0.000
==== e(  34) =     5.01103 eV ==== 
 
    |psi|^2 = 0.000
==== e(  35) =     5.42673 eV ==== 
 
    |psi|^2 = 0.001
==== e(  36) =     5.44990 eV ==== 
     psi = 0.002*[#  13]+0.002*[#  14]+0.002*[#  17]+0.002*[#  18]
    |psi|^2 = 0.007
==== e(  37) =     5.45038 eV ==== 
     psi = 0.002*[#  13]+0.002*[#  14]+0.002*[#  17]+0.002*[#  18]
    |psi|^2 = 0.007
==== e(  38) =     5.88424 eV ==== 
 
    |psi|^2 = 0.001
==== e(  39) =     5.90171 eV ==== 
 
    |psi|^2 = 0.000
==== e(  40) =     5.93456 eV ==== 
     psi = 0.002*[#   2]
    |psi|^2 = 0.004

 k =   0.2307692308  0.5773502692  0.0000000000
==== e(   1) =   -67.14323 eV ==== 
     psi = 0.986*[#   1]+0.012*[#   2]+0.001*[#   6]
    |psi|^2 = 1.000
==== e(   2) =   -41.37332 eV ==== 
     psi = 1.000*[#   3]
    |psi|^2 = 1.000
==== e(   3) =   -41.16690 eV ==== 
     psi = 0.498*[#   4]+0.498*[#   5]+0.002*[#   9]+0.002*[#  10]
    |psi|^2 = 1.000
==== e(   4) =   -41.07104 eV ==== 
     psi = 0.498*[#   4]+0.498*[#   5]+0.002*[#   9]+0.002*[#  10]
    |psi|^2 = 1.000
==== e(   5) =   -16.52611 eV ==== 
     psi = 0.499*[#  11]+0.499*[#  15]
    |psi|^2 = 1.000
==== e(   6) =   -16.52611 eV ==== 
     psi = 0.499*[#  11]+0.499*[#  15]
    |psi|^2 = 1.000
==== e(   7) =    -8.65859 eV ==== 
     psi = 0.249*[#  13]+0.249*[#  14]+0.249*[#  17]+0.249*[#  18]
    |psi|^2 = 0.998
==== e(   8) =    -8.65859 eV ==== 
     psi = 0.249*[#  13]+0.249*[#  14]+0.249*[#  17]+0.249*[#  18]
    |psi|^2 = 0.998
==== e(   9) =    -7.28729 eV ==== 
     psi = 0.459*[#   9]+0.459*[#  10]+0.036*[#   2]+0.024*[#   6]+0.002*[#   4]
          +0.002*[#   5]
    |psi|^2 = 0.981
==== e(  10) =    -7.19775 eV ==== 
     psi = 0.248*[#  13]+0.248*[#  14]+0.248*[#  17]+0.248*[#  18]+0.001*[#  11]
          +0.001*[#  15]
    |psi|^2 = 0.992
==== e(  11) =    -7.19775 eV ==== 
     psi = 0.248*[#  13]+0.248*[#  14]+0.248*[#  17]+0.248*[#  18]+0.001*[#  11]
          +0.001*[#  15]
    |psi|^2 = 0.992
==== e(  12) =    -6.95215 eV ==== 
     psi = 0.499*[#   7]+0.499*[#   8]
    |psi|^2 = 0.997
==== e(  13) =    -6.12766 eV ==== 
     psi = 0.498*[#   7]+0.498*[#   8]
    |psi|^2 = 0.996
==== e(  14) =    -5.98764 eV ==== 
     psi = 0.500*[#  12]+0.500*[#  16]
    |psi|^2 = 1.000
==== e(  15) =    -5.98764 eV ==== 
     psi = 0.500*[#  12]+0.500*[#  16]
    |psi|^2 = 1.000
==== e(  16) =    -5.97711 eV ==== 
     psi = 0.433*[#   9]+0.433*[#  10]+0.001*[#   4]+0.001*[#   5]
    |psi|^2 = 0.868
==== e(  17) =    -5.64031 eV ==== 
     psi = 0.928*[#   6]+0.060*[#   2]+0.006*[#   9]+0.006*[#  10]
    |psi|^2 = 0.999
==== e(  18) =    -0.87867 eV ==== 
     psi = 0.063*[#   9]+0.063*[#  10]
    |psi|^2 = 0.125
==== e(  19) =    -0.21662 eV ==== 
     psi = 0.836*[#   2]+0.044*[#   6]+0.026*[#   9]+0.026*[#  10]+0.014*[#   1]
          
    |psi|^2 = 0.947
==== e(  20) =     1.12613 eV ==== 
 
    |psi|^2 = 0.002
==== e(  21) =     2.37799 eV ==== 
     psi = 0.027*[#   2]+0.004*[#   9]+0.004*[#  10]
    |psi|^2 = 0.036
==== e(  22) =     2.68925 eV ==== 
 
    |psi|^2 = 0.000
==== e(  23) =     2.68927 eV ==== 
 
    |psi|^2 = 0.000
==== e(  24) =     3.08386 eV ==== 
 
    |psi|^2 = 0.001
==== e(  25) =     4.09182 eV ==== 
     psi = 0.002*[#   9]+0.002*[#  10]
    |psi|^2 = 0.005
==== e(  26) =     4.56819 eV ==== 
 
    |psi|^2 = 0.000
==== e(  27) =     4.56821 eV ==== 
 
    |psi|^2 = 0.000
==== e(  28) =     4.74859 eV ==== 
     psi = 0.011*[#   2]+0.002*[#   9]+0.002*[#  10]
    |psi|^2 = 0.015
==== e(  29) =     4.98157 eV ==== 
 
    |psi|^2 = 0.001
==== e(  30) =     4.98175 eV ==== 
 
    |psi|^2 = 0.001
==== e(  31) =     5.14117 eV ==== 
 
    |psi|^2 = 0.001
==== e(  32) =     5.37781 eV ==== 
 
    |psi|^2 = 0.000
==== e(  33) =     5.37828 eV ==== 
 
    |psi|^2 = 0.000
==== e(  34) =     5.39808 eV ==== 
 
    |psi|^2 = 0.000
==== e(  35) =     5.39812 eV ==== 
 
    |psi|^2 = 0.000
==== e(  36) =     5.60633 eV ==== 
     psi = 0.001*[#  13]+0.001*[#  14]+0.001*[#  17]+0.001*[#  18]
    |psi|^2 = 0.005
==== e(  37) =     5.60638 eV ==== 
     psi = 0.001*[#  13]+0.001*[#  14]+0.001*[#  17]+0.001*[#  18]
    |psi|^2 = 0.005
==== e(  38) =     5.75533 eV ==== 
 
    |psi|^2 = 0.000
==== e(  39) =     5.75579 eV ==== 
 
    |psi|^2 = 0.000
==== e(  40) =     5.89384 eV ==== 
 
    |psi|^2 = 0.001

 k =   0.3076923077  0.5329387100  0.0000000000
==== e(   1) =   -67.14259 eV ==== 
     psi = 0.985*[#   1]+0.014*[#   2]+0.001*[#   6]
    |psi|^2 = 1.000
==== e(   2) =   -41.37256 eV ==== 
     psi = 1.000*[#   3]
    |psi|^2 = 1.000
==== e(   3) =   -41.14448 eV ==== 
     psi = 0.498*[#   4]+0.498*[#   5]+0.002*[#   9]+0.002*[#  10]
    |psi|^2 = 1.000
==== e(   4) =   -41.10109 eV ==== 
     psi = 0.498*[#   4]+0.498*[#   5]+0.002*[#   9]+0.002*[#  10]
    |psi|^2 = 1.000
==== e(   5) =   -16.48726 eV ==== 
     psi = 0.499*[#  11]+0.499*[#  15]
    |psi|^2 = 1.000
==== e(   6) =   -16.48726 eV ==== 
     psi = 0.499*[#  11]+0.499*[#  15]
    |psi|^2 = 1.000
==== e(   7) =    -8.34421 eV ==== 
     psi = 0.249*[#  13]+0.249*[#  14]+0.249*[#  17]+0.249*[#  18]
    |psi|^2 = 0.997
==== e(   8) =    -8.34421 eV ==== 
     psi = 0.249*[#  13]+0.249*[#  14]+0.249*[#  17]+0.249*[#  18]
    |psi|^2 = 0.997
==== e(   9) =    -7.72262 eV ==== 
     psi = 0.249*[#  13]+0.249*[#  14]+0.249*[#  17]+0.249*[#  18]
    |psi|^2 = 0.994
==== e(  10) =    -7.72262 eV ==== 
     psi = 0.249*[#  13]+0.249*[#  14]+0.249*[#  17]+0.249*[#  18]
    |psi|^2 = 0.994
==== e(  11) =    -6.84362 eV ==== 
     psi = 0.478*[#   9]+0.478*[#  10]+0.002*[#   4]+0.002*[#   5]
    |psi|^2 = 0.960
==== e(  12) =    -6.76896 eV ==== 
     psi = 0.498*[#   7]+0.498*[#   8]
    |psi|^2 = 0.996
==== e(  13) =    -6.43226 eV ==== 
     psi = 0.439*[#   9]+0.439*[#  10]+0.020*[#   2]+0.020*[#   6]+0.002*[#   4]
          +0.002*[#   5]
    |psi|^2 = 0.922
==== e(  14) =    -6.38704 eV ==== 
     psi = 0.498*[#   7]+0.498*[#   8]
    |psi|^2 = 0.996
==== e(  15) =    -5.95283 eV ==== 
     psi = 0.500*[#  12]+0.500*[#  16]
    |psi|^2 = 1.000
==== e(  16) =    -5.95283 eV ==== 
     psi = 0.500*[#  12]+0.500*[#  16]
    |psi|^2 = 1.000
==== e(  17) =    -5.62749 eV ==== 
     psi = 0.936*[#   6]+0.053*[#   2]+0.005*[#   9]+0.005*[#  10]
    |psi|^2 = 0.999
==== e(  18) =    -0.58313 eV ==== 
     psi = 0.500*[#   2]+0.046*[#   9]+0.046*[#  10]+0.025*[#   6]+0.009*[#   1]
          
    |psi|^2 = 0.625
==== e(  19) =     0.37166 eV ==== 
     psi = 0.384*[#   2]+0.017*[#   6]+0.006*[#   1]+0.005*[#   9]+0.005*[#  10]
          
    |psi|^2 = 0.416
==== e(  20) =     1.25188 eV ==== 
     psi = 0.017*[#   9]+0.017*[#  10]
    |psi|^2 = 0.034
==== e(  21) =     1.43428 eV ==== 
 
    |psi|^2 = 0.001
==== e(  22) =     3.07491 eV ==== 
 
    |psi|^2 = 0.000
==== e(  23) =     3.07493 eV ==== 
 
    |psi|^2 = 0.000
==== e(  24) =     3.63771 eV ==== 
 
    |psi|^2 = 0.001
==== e(  25) =     3.96599 eV ==== 
 
    |psi|^2 = 0.000
==== e(  26) =     3.96600 eV ==== 
 
    |psi|^2 = 0.000
==== e(  27) =     4.08092 eV ==== 
 
    |psi|^2 = 0.002
==== e(  28) =     4.26626 eV ==== 
     psi = 0.004*[#   2]+0.002*[#   9]+0.002*[#  10]
    |psi|^2 = 0.009
==== e(  29) =     5.15087 eV ==== 
 
    |psi|^2 = 0.000
==== e(  30) =     5.15112 eV ==== 
 
    |psi|^2 = 0.000
==== e(  31) =     5.31756 eV ==== 
 
    |psi|^2 = 0.000
==== e(  32) =     5.31787 eV ==== 
 
    |psi|^2 = 0.000
==== e(  33) =     5.76467 eV ==== 
     psi = 0.002*[#   9]+0.002*[#  10]
    |psi|^2 = 0.004
==== e(  34) =     5.89717 eV ==== 
     psi = 0.008*[#   2]
    |psi|^2 = 0.008
==== e(  35) =     6.07306 eV ==== 
 
    |psi|^2 = 0.001
==== e(  36) =     6.16409 eV ==== 
 
    |psi|^2 = 0.000
==== e(  37) =     6.17092 eV ==== 
 
    |psi|^2 = 0.000
==== e(  38) =     6.17806 eV ==== 
 
    |psi|^2 = 0.002
==== e(  39) =     6.17813 eV ==== 
 
    |psi|^2 = 0.002
==== e(  40) =     6.44592 eV ==== 
 
    |psi|^2 = 0.000

Lowdin Charges: 

     Atom #   1: total charge =  13.8813, s =  2.9525, 
     Atom #   1: total charge =  13.8813, p =  5.9962, pz=  1.9999, px=  1.9981, py=  1.9981, 
     Atom #   1: total charge =  13.8813, d =  4.9326, dz2=  0.8326, dxz=  0.9644, dyz=  0.9644, dx2-y2=  1.0856, dxy=  1.0856, 
     Atom #   2: total charge =   5.9930, s =  1.9934, 
     Atom #   2: total charge =   5.9930, p =  3.9995, pz=  1.6431, px=  1.1782, py=  1.1782, 
     Atom #   2: total charge =   5.9930, d =  0.0000, dz2=  0.0000, dxz=  0.0000, dyz=  0.0000, dx2-y2=  0.0000, dxy=  0.0000, 
     Atom #   3: total charge =   5.9930, s =  1.9934, 
     Atom #   3: total charge =   5.9930, p =  3.9995, pz=  1.6431, px=  1.1782, py=  1.1782, 
     Atom #   3: total charge =   5.9930, d =  0.0000, dz2=  0.0000, dxz=  0.0000, dyz=  0.0000, dx2-y2=  0.0000, dxy=  0.0000, 
     Spilling Parameter:   0.0051
 
     PROJWFC      :      1.24s CPU      1.72s WALL

 
   This run was terminated on:  14:29:34  15Dec2025            

=------------------------------------------------------------------------------=
   JOB DONE.
=------------------------------------------------------------------------------=
